Program Version,EnergyPlus, Version 9.6.0-f420c06a69, YMD=2022.04.20 10:46
1,5,Environment Title[],Latitude[deg],Longitude[deg],Time Zone[],Elevation[m]
2,8,Day of Simulation[],Month[],Day of Month[],DST Indicator[1=yes 0=no],Hour[],StartMinute[],EndMinute[],DayType
3,5,Cumulative Day of Simulation[],Month[],Day of Month[],DST Indicator[1=yes 0=no],DayType  ! When Daily Report Variables Requested
4,2,Cumulative Days of Simulation[],Month[]  ! When Monthly Report Variables Requested
5,1,Cumulative Days of Simulation[] ! When Run Period Report Variables Requested
6,1,Calendar Year of Simulation[] ! When Annual Report Variables Requested
7,1,Environment,Site Outdoor Air Drybulb Temperature [C] !Hourly
8,1,Environment,Site Outdoor Air Relative Humidity [%] !Hourly
9,1,Environment,Site Wind Speed [m/s] !Hourly
558,1,EMS,Comfort Temperature [C] !Hourly
559,1,EMS,Adaptive Cooling Setpoint Temperature [C] !Hourly
560,1,EMS,Adaptive Heating Setpoint Temperature [C] !Hourly
561,1,EMS,Adaptive Cooling Setpoint Temperature_No Tolerance [C] !Hourly
562,1,EMS,Adaptive Heating Setpoint Temperature_No Tolerance [C] !Hourly
563,1,EMS,Ventilation Setpoint Temperature [C] !Hourly
564,1,EMS,Minimum Outdoor Temperature for ventilation [C] !Hourly
565,1,EMS,Comfortable Hours_No Applicability_BLOCK1_ZONE1 [H] !Hourly
566,1,EMS,Comfortable Hours_No Applicability_BLOCK1_ZONE3 [H] !Hourly
567,1,EMS,Comfortable Hours_No Applicability_BLOCK1_ZONE5 [H] !Hourly
568,1,EMS,Comfortable Hours_No Applicability_BLOCK1_ZONE2 [H] !Hourly
569,1,EMS,Comfortable Hours_No Applicability_BLOCK1_ZONE4 [H] !Hourly
570,1,EMS,Comfortable Hours_Applicability_BLOCK1_ZONE1 [H] !Hourly
571,1,EMS,Comfortable Hours_Applicability_BLOCK1_ZONE3 [H] !Hourly
572,1,EMS,Comfortable Hours_Applicability_BLOCK1_ZONE5 [H] !Hourly
573,1,EMS,Comfortable Hours_Applicability_BLOCK1_ZONE2 [H] !Hourly
574,1,EMS,Comfortable Hours_Applicability_BLOCK1_ZONE4 [H] !Hourly
575,1,EMS,Discomfortable Applicable Hot Hours_BLOCK1_ZONE1 [H] !Hourly
576,1,EMS,Discomfortable Applicable Hot Hours_BLOCK1_ZONE3 [H] !Hourly
577,1,EMS,Discomfortable Applicable Hot Hours_BLOCK1_ZONE5 [H] !Hourly
578,1,EMS,Discomfortable Applicable Hot Hours_BLOCK1_ZONE2 [H] !Hourly
579,1,EMS,Discomfortable Applicable Hot Hours_BLOCK1_ZONE4 [H] !Hourly
580,1,EMS,Discomfortable Applicable Cold Hours_BLOCK1_ZONE1 [H] !Hourly
581,1,EMS,Discomfortable Applicable Cold Hours_BLOCK1_ZONE3 [H] !Hourly
582,1,EMS,Discomfortable Applicable Cold Hours_BLOCK1_ZONE5 [H] !Hourly
583,1,EMS,Discomfortable Applicable Cold Hours_BLOCK1_ZONE2 [H] !Hourly
584,1,EMS,Discomfortable Applicable Cold Hours_BLOCK1_ZONE4 [H] !Hourly
585,1,EMS,Discomfortable Non Applicable Hot Hours_BLOCK1_ZONE1 [H] !Hourly
586,1,EMS,Discomfortable Non Applicable Hot Hours_BLOCK1_ZONE3 [H] !Hourly
587,1,EMS,Discomfortable Non Applicable Hot Hours_BLOCK1_ZONE5 [H] !Hourly
588,1,EMS,Discomfortable Non Applicable Hot Hours_BLOCK1_ZONE2 [H] !Hourly
589,1,EMS,Discomfortable Non Applicable Hot Hours_BLOCK1_ZONE4 [H] !Hourly
590,1,EMS,Discomfortable Non Applicable Cold Hours_BLOCK1_ZONE1 [H] !Hourly
591,1,EMS,Discomfortable Non Applicable Cold Hours_BLOCK1_ZONE3 [H] !Hourly
592,1,EMS,Discomfortable Non Applicable Cold Hours_BLOCK1_ZONE5 [H] !Hourly
593,1,EMS,Discomfortable Non Applicable Cold Hours_BLOCK1_ZONE2 [H] !Hourly
594,1,EMS,Discomfortable Non Applicable Cold Hours_BLOCK1_ZONE4 [H] !Hourly
595,1,EMS,Zone Floor Area_BLOCK1_ZONE1 [m2] !Hourly
596,1,EMS,Zone Floor Area_BLOCK1_ZONE3 [m2] !Hourly
597,1,EMS,Zone Floor Area_BLOCK1_ZONE5 [m2] !Hourly
598,1,EMS,Zone Floor Area_BLOCK1_ZONE2 [m2] !Hourly
599,1,EMS,Zone Floor Area_BLOCK1_ZONE4 [m2] !Hourly
600,1,EMS,Zone Air Volume_BLOCK1_ZONE1 [m3] !Hourly
601,1,EMS,Zone Air Volume_BLOCK1_ZONE3 [m3] !Hourly
602,1,EMS,Zone Air Volume_BLOCK1_ZONE5 [m3] !Hourly
603,1,EMS,Zone Air Volume_BLOCK1_ZONE2 [m3] !Hourly
604,1,EMS,Zone Air Volume_BLOCK1_ZONE4 [m3] !Hourly
605,1,EMS,Ventilation Hours_BLOCK1_ZONE1 [H] !Hourly
606,1,EMS,Ventilation Hours_BLOCK1_ZONE3 [H] !Hourly
607,1,EMS,Ventilation Hours_BLOCK1_ZONE5 [H] !Hourly
608,1,EMS,Ventilation Hours_BLOCK1_ZONE2 [H] !Hourly
609,1,EMS,Ventilation Hours_BLOCK1_ZONE4 [H] !Hourly
610,1,BLOCK1:ZONE1,Zone Operative Temperature [C] !Hourly
611,1,BLOCK1:ZONE3,Zone Operative Temperature [C] !Hourly
612,1,BLOCK1:ZONE5,Zone Operative Temperature [C] !Hourly
613,1,BLOCK1:ZONE2,Zone Operative Temperature [C] !Hourly
614,1,BLOCK1:ZONE4,Zone Operative Temperature [C] !Hourly
615,1,BLOCK1:ZONE1,AFN Zone Infiltration Volume [m3] !Hourly
616,1,BLOCK1:ZONE1,AFN Zone Infiltration Air Change Rate [ach] !Hourly
617,1,BLOCK1:ZONE3,AFN Zone Infiltration Volume [m3] !Hourly
618,1,BLOCK1:ZONE3,AFN Zone Infiltration Air Change Rate [ach] !Hourly
619,1,BLOCK1:ZONE5,AFN Zone Infiltration Volume [m3] !Hourly
620,1,BLOCK1:ZONE5,AFN Zone Infiltration Air Change Rate [ach] !Hourly
621,1,BLOCK1:ZONE2,AFN Zone Infiltration Volume [m3] !Hourly
622,1,BLOCK1:ZONE2,AFN Zone Infiltration Air Change Rate [ach] !Hourly
623,1,BLOCK1:ZONE4,AFN Zone Infiltration Volume [m3] !Hourly
624,1,BLOCK1:ZONE4,AFN Zone Infiltration Air Change Rate [ach] !Hourly
