Program Version,EnergyPlus, Version 9.4.0-998c4b761e, YMD=2023.11.21 11:55
1,5,Environment Title[],Latitude[deg],Longitude[deg],Time Zone[],Elevation[m]
2,8,Day of Simulation[],Month[],Day of Month[],DST Indicator[1=yes 0=no],Hour[],StartMinute[],EndMinute[],DayType
3,5,Cumulative Day of Simulation[],Month[],Day of Month[],DST Indicator[1=yes 0=no],DayType  ! When Daily Report Variables Requested
4,2,Cumulative Days of Simulation[],Month[]  ! When Monthly Report Variables Requested
5,1,Cumulative Days of Simulation[] ! When Run Period Report Variables Requested
6,1,Calendar Year of Simulation[] ! When Annual Report Variables Requested
315,1,PEOPLE BLOCK1:ZONE2,Zone Thermal Comfort Fanger Model PMV [] !Hourly
316,1,PEOPLE BLOCK1:ZONE1,Zone Thermal Comfort Fanger Model PMV [] !Hourly
End of Data Dictionary
1,UNTITLED (01-01:31-12),  37.42,  -5.90,   1.00,  31.00
2,1, 1, 1, 0, 1, 0.00,60.00,Tuesday
315,-0.09804909996441763
316,-0.005500858797190437
2,1, 1, 1, 0, 2, 0.00,60.00,Tuesday
315,-0.09713666011861846
316,0.0056780668043062139
2,1, 1, 1, 0, 3, 0.00,60.00,Tuesday
315,-0.06988411487900694
316,0.040133105750603529
2,1, 1, 1, 0, 4, 0.00,60.00,Tuesday
315,-0.03129562821407751
316,0.0821254264177084
2,1, 1, 1, 0, 5, 0.00,60.00,Tuesday
315,0.00789227565324111
316,0.1020011307039574
2,1, 1, 1, 0, 6, 0.00,60.00,Tuesday
315,0.0428681297307519
316,0.10471247517053735
2,1, 1, 1, 0, 7, 0.00,60.00,Tuesday
315,0.07352731742553467
316,0.10456889823907498
2,1, 1, 1, 0, 8, 0.00,60.00,Tuesday
315,0.11955313312858314
316,0.12599351047694536
2,1, 1, 1, 0, 9, 0.00,60.00,Tuesday
315,0.12392371229619763
316,0.1251172951678698
2,1, 1, 1, 0,10, 0.00,60.00,Tuesday
315,0.12701046047610968
316,0.12774392940387434
2,1, 1, 1, 0,11, 0.00,60.00,Tuesday
315,0.14462593066638125
316,0.15543779095575994
2,1, 1, 1, 0,12, 0.00,60.00,Tuesday
315,0.14825969973154433
316,0.17370328577957656
2,1, 1, 1, 0,13, 0.00,60.00,Tuesday
315,0.12300210100587399
316,0.15834724841686258
2,1, 1, 1, 0,14, 0.00,60.00,Tuesday
315,0.10507509483656368
316,0.13455662766596003
2,1, 1, 1, 0,15, 0.00,60.00,Tuesday
315,0.1151261718301331
316,0.1292257320510487
2,1, 1, 1, 0,16, 0.00,60.00,Tuesday
315,0.1245309714211981
316,0.11854319712169317
2,1, 1, 1, 0,17, 0.00,60.00,Tuesday
315,0.10783720874833765
316,0.08399554631995147
2,1, 1, 1, 0,18, 0.00,60.00,Tuesday
315,0.06726443082904848
316,0.032746186798300238
2,1, 1, 1, 0,19, 0.00,60.00,Tuesday
315,0.044898816726049218
316,0.016635327828759328
2,1, 1, 1, 0,20, 0.00,60.00,Tuesday
315,0.04543028738311723
316,0.03340972892131331
2,1, 1, 1, 0,21, 0.00,60.00,Tuesday
315,0.05012144488049852
316,0.05264131954423411
2,1, 1, 1, 0,22, 0.00,60.00,Tuesday
315,0.028053344064995435
316,0.060765898183262227
2,1, 1, 1, 0,23, 0.00,60.00,Tuesday
315,-0.012568884599136304
316,0.04565396867807477
2,1, 1, 1, 0,24, 0.00,60.00,Tuesday
315,-0.060236908861261918
316,0.01746383020620636
2,2, 1, 2, 0, 1, 0.00,60.00,Wednesday
315,-0.11097193562974299
316,-0.017796171287315429
2,2, 1, 2, 0, 2, 0.00,60.00,Wednesday
315,-0.16552357230590707
316,-0.059942541541064
2,2, 1, 2, 0, 3, 0.00,60.00,Wednesday
315,-0.2258180891785885
316,-0.11019243428448182
2,2, 1, 2, 0, 4, 0.00,60.00,Wednesday
315,-0.29099451427956299
316,-0.16723821617159025
2,2, 1, 2, 0, 5, 0.00,60.00,Wednesday
315,-0.3578180077143643
316,-0.22755460381956067
2,2, 1, 2, 0, 6, 0.00,60.00,Wednesday
315,-0.4194438521436066
316,-0.28427982501616147
2,2, 1, 2, 0, 7, 0.00,60.00,Wednesday
315,-0.4755376816182399
316,-0.33723164903308336
2,2, 1, 2, 0, 8, 0.00,60.00,Wednesday
315,-0.404813242135415
316,-0.27253796445942626
2,2, 1, 2, 0, 9, 0.00,60.00,Wednesday
315,-0.24303534052085347
316,-0.11299830999288743
2,2, 1, 2, 0,10, 0.00,60.00,Wednesday
315,-0.008072080941917992
316,0.10951942356461364
2,2, 1, 2, 0,11, 0.00,60.00,Wednesday
315,0.1408933984333871
316,0.19533996540677787
2,2, 1, 2, 0,12, 0.00,60.00,Wednesday
315,0.1395984517130487
316,0.17794630373749155
2,2, 1, 2, 0,13, 0.00,60.00,Wednesday
315,0.10693540676831578
316,0.13057945089406038
2,2, 1, 2, 0,14, 0.00,60.00,Wednesday
315,0.09914362679158097
316,0.11199970988240335
2,2, 1, 2, 0,15, 0.00,60.00,Wednesday
315,0.11949206662770348
316,0.11851972663492014
2,2, 1, 2, 0,16, 0.00,60.00,Wednesday
315,0.13031120346952447
316,0.11495258620956399
2,2, 1, 2, 0,17, 0.00,60.00,Wednesday
315,0.11274730873700223
316,0.08453944550951861
2,2, 1, 2, 0,18, 0.00,60.00,Wednesday
315,0.07100769704809208
316,0.03384215892577251
2,2, 1, 2, 0,19, 0.00,60.00,Wednesday
315,0.05205792340370137
316,0.02471188463866779
2,2, 1, 2, 0,20, 0.00,60.00,Wednesday
315,0.05120087282767215
316,0.040404138182059397
2,2, 1, 2, 0,21, 0.00,60.00,Wednesday
315,0.029274246256481775
316,0.04501173011515076
2,2, 1, 2, 0,22, 0.00,60.00,Wednesday
315,-0.03608803394203524
316,0.016564641844857825
2,2, 1, 2, 0,23, 0.00,60.00,Wednesday
315,-0.1109434327045082
316,-0.029564570395948576
2,2, 1, 2, 0,24, 0.00,60.00,Wednesday
315,-0.18799478083361682
316,-0.08427364535689566
2,3, 1, 3, 0, 1, 0.00,60.00,Thursday
315,-0.2650487880140473
316,-0.14399385471615418
2,3, 1, 3, 0, 2, 0.00,60.00,Thursday
315,-0.3421152248584218
316,-0.20766495859654852
2,3, 1, 3, 0, 3, 0.00,60.00,Thursday
315,-0.4174784027755221
316,-0.27260096801423047
2,3, 1, 3, 0, 4, 0.00,60.00,Thursday
315,-0.4851831227298472
316,-0.33748299442415627
2,3, 1, 3, 0, 5, 0.00,60.00,Thursday
315,-0.5097365340745953
316,-0.40036757770708267
2,3, 1, 3, 0, 6, 0.00,60.00,Thursday
315,-0.5108096210778469
316,-0.4564277276605496
2,3, 1, 3, 0, 7, 0.00,60.00,Thursday
315,-0.5080983882367213
316,-0.49790802463286357
2,3, 1, 3, 0, 8, 0.00,60.00,Thursday
315,-0.4300395229080107
316,-0.41596690743300376
2,3, 1, 3, 0, 9, 0.00,60.00,Thursday
315,-0.3091349930967069
316,-0.2658932057347746
2,3, 1, 3, 0,10, 0.00,60.00,Thursday
315,-0.1277695140072308
316,-0.03578660416456433
2,3, 1, 3, 0,11, 0.00,60.00,Thursday
315,0.0614112413581641
316,0.12738851067767449
2,3, 1, 3, 0,12, 0.00,60.00,Thursday
315,0.12191802635690467
316,0.12804732233651737
2,3, 1, 3, 0,13, 0.00,60.00,Thursday
315,0.1151494929011972
316,0.10425777920441888
2,3, 1, 3, 0,14, 0.00,60.00,Thursday
315,0.11887409437728432
316,0.11475077793792199
2,3, 1, 3, 0,15, 0.00,60.00,Thursday
315,0.12096839100614172
316,0.12534164952476066
2,3, 1, 3, 0,16, 0.00,60.00,Thursday
315,0.1163719469720168
316,0.1188403068965129
2,3, 1, 3, 0,17, 0.00,60.00,Thursday
315,0.09688783991568798
316,0.08757362001354455
2,3, 1, 3, 0,18, 0.00,60.00,Thursday
315,0.0811884552131212
316,0.07295244700368924
2,3, 1, 3, 0,19, 0.00,60.00,Thursday
315,0.08061214451181165
316,0.07685240138061031
2,3, 1, 3, 0,20, 0.00,60.00,Thursday
315,0.06269552160122902
316,0.06073253365692841
2,3, 1, 3, 0,21, 0.00,60.00,Thursday
315,0.01688679860604068
316,0.028202277888097549
2,3, 1, 3, 0,22, 0.00,60.00,Thursday
315,-0.08631233147374143
316,-0.047477934977791649
2,3, 1, 3, 0,23, 0.00,60.00,Thursday
315,-0.17522426719432747
316,-0.11613495853932847
2,3, 1, 3, 0,24, 0.00,60.00,Thursday
315,-0.25612925841336706
316,-0.18196127081041398
2,4, 1, 4, 0, 1, 0.00,60.00,Friday
315,-0.33154693621019939
316,-0.24598091132628059
2,4, 1, 4, 0, 2, 0.00,60.00,Friday
315,-0.4028489686720991
316,-0.30855281251099556
2,4, 1, 4, 0, 3, 0.00,60.00,Friday
315,-0.4686769954660974
316,-0.36838916840490878
2,4, 1, 4, 0, 4, 0.00,60.00,Friday
315,-0.5049740227571056
316,-0.42614506734454968
2,4, 1, 4, 0, 5, 0.00,60.00,Friday
315,-0.5101437529543741
316,-0.48126255695510686
2,4, 1, 4, 0, 6, 0.00,60.00,Friday
315,-0.5096277012930744
316,-0.5078093222206321
2,4, 1, 4, 0, 7, 0.00,60.00,Friday
315,-0.5086562876814129
316,-0.5113808117864412
2,4, 1, 4, 0, 8, 0.00,60.00,Friday
315,-0.44119765400928848
316,-0.43393759974258358
2,4, 1, 4, 0, 9, 0.00,60.00,Friday
315,-0.3312674126059256
316,-0.3032454141073599
2,4, 1, 4, 0,10, 0.00,60.00,Friday
315,-0.12463582469272631
316,-0.042840217953784339
2,4, 1, 4, 0,11, 0.00,60.00,Friday
315,0.0996340057728576
316,0.16966092024968269
2,4, 1, 4, 0,12, 0.00,60.00,Friday
315,0.1414069960755763
316,0.18835421670072279
2,4, 1, 4, 0,13, 0.00,60.00,Friday
315,0.11743576119544952
316,0.14545948722196859
2,4, 1, 4, 0,14, 0.00,60.00,Friday
315,0.11103104756685278
316,0.12447937056759939
2,4, 1, 4, 0,15, 0.00,60.00,Friday
315,0.13153320395973257
316,0.12923707292401408
2,4, 1, 4, 0,16, 0.00,60.00,Friday
315,0.13882630429176585
316,0.12249561172737653
2,4, 1, 4, 0,17, 0.00,60.00,Friday
315,0.11889849997985744
316,0.09087889594504659
2,4, 1, 4, 0,18, 0.00,60.00,Friday
315,0.07469200908400005
316,0.03929616724977597
2,4, 1, 4, 0,19, 0.00,60.00,Friday
315,0.04875085447298486
316,0.020752219896516996
2,4, 1, 4, 0,20, 0.00,60.00,Friday
315,0.04828484658469597
316,0.03697379427109789
2,4, 1, 4, 0,21, 0.00,60.00,Friday
315,0.03319881728249074
316,0.048211108902008307
2,4, 1, 4, 0,22, 0.00,60.00,Friday
315,-0.021741709689270539
316,0.029108491654204435
2,4, 1, 4, 0,23, 0.00,60.00,Friday
315,-0.08739915706921978
316,-0.007670207800981122
2,4, 1, 4, 0,24, 0.00,60.00,Friday
315,-0.15378143452887187
316,-0.05067874323774498
2,5, 1, 5, 0, 1, 0.00,60.00,Saturday
315,-0.2180685030944612
316,-0.0967487549100561
2,5, 1, 5, 0, 2, 0.00,60.00,Saturday
315,-0.28016771256264985
316,-0.14480343376737729
2,5, 1, 5, 0, 3, 0.00,60.00,Saturday
315,-0.3407031700248104
316,-0.19452659595285297
2,5, 1, 5, 0, 4, 0.00,60.00,Saturday
315,-0.3997277310088799
316,-0.24524976008180858
2,5, 1, 5, 0, 5, 0.00,60.00,Saturday
315,-0.456277920897756
316,-0.29546506316489909
2,5, 1, 5, 0, 6, 0.00,60.00,Saturday
315,-0.4983779593062268
316,-0.34357584325242299
2,5, 1, 5, 0, 7, 0.00,60.00,Saturday
315,-0.5077791594265789
316,-0.3898127296231162
2,5, 1, 5, 0, 8, 0.00,60.00,Saturday
315,-0.5076024961830958
316,-0.43458391594300307
2,5, 1, 5, 0, 9, 0.00,60.00,Saturday
315,-0.5016609434435083
316,-0.4707420845972067
2,5, 1, 5, 0,10, 0.00,60.00,Saturday
315,-0.46639019873229578
316,-0.4036225803418759
2,5, 1, 5, 0,11, 0.00,60.00,Saturday
315,-0.37940788174964626
316,-0.18850337531373
2,5, 1, 5, 0,12, 0.00,60.00,Saturday
315,-0.25494143906581187
316,0.07064430479497228
2,5, 1, 5, 0,13, 0.00,60.00,Saturday
315,-0.15012861922216517
316,0.14314621140338475
2,5, 1, 5, 0,14, 0.00,60.00,Saturday
315,-0.05634367809695211
316,0.13288714919014256
2,5, 1, 5, 0,15, 0.00,60.00,Saturday
315,0.07084945443316292
316,0.1312678229178103
2,5, 1, 5, 0,16, 0.00,60.00,Saturday
315,0.13557876356567614
316,0.11858360221966605
2,5, 1, 5, 0,17, 0.00,60.00,Saturday
315,0.12152856116889269
316,0.08735428032226476
2,5, 1, 5, 0,18, 0.00,60.00,Saturday
315,0.08402642180915747
316,0.04989918778863484
2,5, 1, 5, 0,19, 0.00,60.00,Saturday
315,0.05255032671608242
316,0.024792407393854848
2,5, 1, 5, 0,20, 0.00,60.00,Saturday
315,0.059554802280535248
316,0.05395080740024576
2,5, 1, 5, 0,21, 0.00,60.00,Saturday
315,0.04497530057112431
316,0.06939761839019562
2,5, 1, 5, 0,22, 0.00,60.00,Saturday
315,0.006025279244214435
316,0.07283355783367632
2,5, 1, 5, 0,23, 0.00,60.00,Saturday
315,-0.04757014486250359
316,0.057620491520086507
2,5, 1, 5, 0,24, 0.00,60.00,Saturday
315,-0.10514682011904726
316,0.028933078379834187
2,6, 1, 6, 0, 1, 0.00,60.00,Sunday
315,-0.16430742412470174
316,-0.008855634119973817
2,6, 1, 6, 0, 2, 0.00,60.00,Sunday
315,-0.2295470696924963
316,-0.058179265181079
2,6, 1, 6, 0, 3, 0.00,60.00,Sunday
315,-0.3024536437054862
316,-0.11899815318213185
2,6, 1, 6, 0, 4, 0.00,60.00,Sunday
315,-0.3603423303159484
316,-0.1685601030067277
2,6, 1, 6, 0, 5, 0.00,60.00,Sunday
315,-0.40530365998625497
316,-0.20804312181476337
2,6, 1, 6, 0, 6, 0.00,60.00,Sunday
315,-0.44676785077901046
316,-0.2458468180964672
2,6, 1, 6, 0, 7, 0.00,60.00,Sunday
315,-0.4859527302574199
316,-0.28365870694076619
2,6, 1, 6, 0, 8, 0.00,60.00,Sunday
315,-0.5048171662566677
316,-0.3209216245344201
2,6, 1, 6, 0, 9, 0.00,60.00,Sunday
315,-0.5004969848908042
316,-0.3467783509555199
2,6, 1, 6, 0,10, 0.00,60.00,Sunday
315,-0.44122187775896179
316,-0.24391335549463906
2,6, 1, 6, 0,11, 0.00,60.00,Sunday
315,-0.3293877365544501
316,-0.0197822863234129
2,6, 1, 6, 0,12, 0.00,60.00,Sunday
315,-0.19655453331258694
316,0.14540155196361666
2,6, 1, 6, 0,13, 0.00,60.00,Sunday
315,-0.09406934437973896
316,0.14355330986662769
2,6, 1, 6, 0,14, 0.00,60.00,Sunday
315,-0.006146337319728926
316,0.12683436068358218
2,6, 1, 6, 0,15, 0.00,60.00,Sunday
315,0.10113486462697903
316,0.12842767607254819
2,6, 1, 6, 0,16, 0.00,60.00,Sunday
315,0.13971399512477068
316,0.1210260781607206
2,6, 1, 6, 0,17, 0.00,60.00,Sunday
315,0.12172754593053685
316,0.0877738782851707
2,6, 1, 6, 0,18, 0.00,60.00,Sunday
315,0.07765681849888322
316,0.03968184653104193
2,6, 1, 6, 0,19, 0.00,60.00,Sunday
315,0.04838595855667109
316,0.019007830896231795
2,6, 1, 6, 0,20, 0.00,60.00,Sunday
315,0.058576772990336718
316,0.05176491435406165
2,6, 1, 6, 0,21, 0.00,60.00,Sunday
315,0.04752572474257846
316,0.06901216545031373
2,6, 1, 6, 0,22, 0.00,60.00,Sunday
315,0.01025117456452857
316,0.07412079774940958
2,6, 1, 6, 0,23, 0.00,60.00,Sunday
315,-0.04357052296601819
316,0.06217562000063538
2,6, 1, 6, 0,24, 0.00,60.00,Sunday
315,-0.10350592970273495
316,0.03382418302037018
2,7, 1, 7, 0, 1, 0.00,60.00,Monday
315,-0.16660163987654487
316,-0.006049383191488146
2,7, 1, 7, 0, 2, 0.00,60.00,Monday
315,-0.2325440953368058
316,-0.054987293924123919
2,7, 1, 7, 0, 3, 0.00,60.00,Monday
315,-0.30129536638734746
316,-0.11131595663547804
2,7, 1, 7, 0, 4, 0.00,60.00,Monday
315,-0.3659788197976166
316,-0.16714624621635283
2,7, 1, 7, 0, 5, 0.00,60.00,Monday
315,-0.41378865842728776
316,-0.20926502036135159
2,7, 1, 7, 0, 6, 0.00,60.00,Monday
315,-0.45270640759975935
316,-0.24454596586599365
2,7, 1, 7, 0, 7, 0.00,60.00,Monday
315,-0.48581356994177507
316,-0.27573469565288008
2,7, 1, 7, 0, 8, 0.00,60.00,Monday
315,-0.4039257034234168
316,-0.19896082916183528
2,7, 1, 7, 0, 9, 0.00,60.00,Monday
315,-0.24881506346404343
316,-0.04752412323083654
2,7, 1, 7, 0,10, 0.00,60.00,Monday
315,-0.008296508430309487
316,0.14605159634841384
2,7, 1, 7, 0,11, 0.00,60.00,Monday
315,0.14632909193148253
316,0.20416304305600703
2,7, 1, 7, 0,12, 0.00,60.00,Monday
315,0.14415864553223266
316,0.1779250257765425
2,7, 1, 7, 0,13, 0.00,60.00,Monday
315,0.11313791166665203
316,0.13147863438424596
2,7, 1, 7, 0,14, 0.00,60.00,Monday
315,0.10388480559396177
316,0.11216048998987063
2,7, 1, 7, 0,15, 0.00,60.00,Monday
315,0.12160561443313849
316,0.11631806558942808
2,7, 1, 7, 0,16, 0.00,60.00,Monday
315,0.12906493722111146
316,0.11042075045056585
2,7, 1, 7, 0,17, 0.00,60.00,Monday
315,0.11256930035837465
316,0.08699448334621012
2,7, 1, 7, 0,18, 0.00,60.00,Monday
315,0.07637805564904779
316,0.045180119288802219
2,7, 1, 7, 0,19, 0.00,60.00,Monday
315,0.05019911354404013
316,0.023118034253952689
2,7, 1, 7, 0,20, 0.00,60.00,Monday
315,0.04830520230765381
316,0.037088939877190457
2,7, 1, 7, 0,21, 0.00,60.00,Monday
315,0.02712617808742211
316,0.046569111693642199
2,7, 1, 7, 0,22, 0.00,60.00,Monday
315,-0.035538586361335968
316,0.026788674985753947
2,7, 1, 7, 0,23, 0.00,60.00,Monday
315,-0.09240359953821276
316,0.0020206278894375985
2,7, 1, 7, 0,24, 0.00,60.00,Monday
315,-0.1500858021020896
316,-0.030695639199776665
2,8, 1, 8, 0, 1, 0.00,60.00,Tuesday
315,-0.20968387321649904
316,-0.07064137232970917
2,8, 1, 8, 0, 2, 0.00,60.00,Tuesday
315,-0.26883815071944658
316,-0.11461091709799565
2,8, 1, 8, 0, 3, 0.00,60.00,Tuesday
315,-0.3243565307529758
316,-0.1586402066389955
2,8, 1, 8, 0, 4, 0.00,60.00,Tuesday
315,-0.3763729923363997
316,-0.2020343506043339
2,8, 1, 8, 0, 5, 0.00,60.00,Tuesday
315,-0.4272217654564262
316,-0.24645988940531844
2,8, 1, 8, 0, 6, 0.00,60.00,Tuesday
315,-0.4812269230202711
316,-0.2979062511805673
2,8, 1, 8, 0, 7, 0.00,60.00,Tuesday
315,-0.5081000451435223
316,-0.3572009873624473
2,8, 1, 8, 0, 8, 0.00,60.00,Tuesday
315,-0.42939038109065139
316,-0.3059776756360528
2,8, 1, 8, 0, 9, 0.00,60.00,Tuesday
315,-0.2960383259885594
316,-0.16029090943455133
2,8, 1, 8, 0,10, 0.00,60.00,Tuesday
315,-0.07820756727658944
316,0.07822381093596134
2,8, 1, 8, 0,11, 0.00,60.00,Tuesday
315,0.12075227289980388
316,0.19232740368345023
2,8, 1, 8, 0,12, 0.00,60.00,Tuesday
315,0.14032351618517265
316,0.1804505245510988
2,8, 1, 8, 0,13, 0.00,60.00,Tuesday
315,0.11227641085544808
316,0.13448645754561684
2,8, 1, 8, 0,14, 0.00,60.00,Tuesday
315,0.10527083554025545
316,0.1160582324435667
2,8, 1, 8, 0,15, 0.00,60.00,Tuesday
315,0.12508326943155616
316,0.12251274590957043
2,8, 1, 8, 0,16, 0.00,60.00,Tuesday
315,0.13470027173067973
316,0.11823355372177558
2,8, 1, 8, 0,17, 0.00,60.00,Tuesday
315,0.11641802433244639
316,0.08864935947742846
2,8, 1, 8, 0,18, 0.00,60.00,Tuesday
315,0.07510265946535241
316,0.03932677113464591
2,8, 1, 8, 0,19, 0.00,60.00,Tuesday
315,0.05078125030827964
316,0.022816498561258636
2,8, 1, 8, 0,20, 0.00,60.00,Tuesday
315,0.048513040174001337
316,0.037565380772585168
2,8, 1, 8, 0,21, 0.00,60.00,Tuesday
315,0.022227456065924537
316,0.04207913594308314
2,8, 1, 8, 0,22, 0.00,60.00,Tuesday
315,-0.05833738300544529
316,0.005145269628109258
2,8, 1, 8, 0,23, 0.00,60.00,Tuesday
315,-0.15267050611129102
316,-0.05521828570391577
2,8, 1, 8, 0,24, 0.00,60.00,Tuesday
315,-0.2460446998558945
316,-0.12220383970904625
2,9, 1, 9, 0, 1, 0.00,60.00,Wednesday
315,-0.3367590404035662
316,-0.19224131896451225
2,9, 1, 9, 0, 2, 0.00,60.00,Wednesday
315,-0.4214889435331224
316,-0.2606677333273042
2,9, 1, 9, 0, 3, 0.00,60.00,Wednesday
315,-0.48940700130916589
316,-0.32354486738328427
2,9, 1, 9, 0, 4, 0.00,60.00,Wednesday
315,-0.5121363877867177
316,-0.38943435441859688
2,9, 1, 9, 0, 5, 0.00,60.00,Wednesday
315,-0.5135439959006097
316,-0.45837600254457486
2,9, 1, 9, 0, 6, 0.00,60.00,Wednesday
315,-0.5111476772509213
316,-0.5045900472565964
2,9, 1, 9, 0, 7, 0.00,60.00,Wednesday
315,-0.5083155885461512
316,-0.5119057180185199
2,9, 1, 9, 0, 8, 0.00,60.00,Wednesday
315,-0.44839588617597728
316,-0.43461008760677519
2,9, 1, 9, 0, 9, 0.00,60.00,Wednesday
315,-0.35870309537006508
316,-0.3087139304607786
2,9, 1, 9, 0,10, 0.00,60.00,Wednesday
315,-0.17577298561803646
316,-0.05844398822653033
2,9, 1, 9, 0,11, 0.00,60.00,Wednesday
315,0.0554615348883867
316,0.16447219721215618
2,9, 1, 9, 0,12, 0.00,60.00,Wednesday
315,0.13659846789048453
316,0.1874870004876491
2,9, 1, 9, 0,13, 0.00,60.00,Wednesday
315,0.11985929877754906
316,0.14526177310717085
2,9, 1, 9, 0,14, 0.00,60.00,Wednesday
315,0.11391285203980235
316,0.12483062309180762
2,9, 1, 9, 0,15, 0.00,60.00,Wednesday
315,0.13384949840383907
316,0.1297368698646421
2,9, 1, 9, 0,16, 0.00,60.00,Wednesday
315,0.1413282960386222
316,0.12409467068566556
2,9, 1, 9, 0,17, 0.00,60.00,Wednesday
315,0.12073890374809437
316,0.09333395875519565
2,9, 1, 9, 0,18, 0.00,60.00,Wednesday
315,0.07841635707218489
316,0.04379422414513941
2,9, 1, 9, 0,19, 0.00,60.00,Wednesday
315,0.04849622146515513
316,0.019387559286322306
2,9, 1, 9, 0,20, 0.00,60.00,Wednesday
315,0.04360309121797842
316,0.032089906366272267
2,9, 1, 9, 0,21, 0.00,60.00,Wednesday
315,0.01923679997485859
316,0.03961207143667389
2,9, 1, 9, 0,22, 0.00,60.00,Wednesday
315,-0.03599674825105746
316,0.028555355244837066
2,9, 1, 9, 0,23, 0.00,60.00,Wednesday
315,-0.09151745299188802
316,0.006154586779330017
2,9, 1, 9, 0,24, 0.00,60.00,Wednesday
315,-0.17325159685253439
316,-0.04858147583135477
2,10, 1,10, 0, 1, 0.00,60.00,Thursday
315,-0.26168900866293029
316,-0.11551935378098273
2,10, 1,10, 0, 2, 0.00,60.00,Thursday
315,-0.3315101959980996
316,-0.1695052685035035
2,10, 1,10, 0, 3, 0.00,60.00,Thursday
315,-0.4148734998522414
316,-0.23971474133610724
2,10, 1,10, 0, 4, 0.00,60.00,Thursday
315,-0.4725507968951786
316,-0.28771698166398626
2,10, 1,10, 0, 5, 0.00,60.00,Thursday
315,-0.5019051822101422
316,-0.3189752494528728
2,10, 1,10, 0, 6, 0.00,60.00,Thursday
315,-0.5088623727753292
316,-0.3584836024518884
2,10, 1,10, 0, 7, 0.00,60.00,Thursday
315,-0.5093393902286703
316,-0.40786471435715956
2,10, 1,10, 0, 8, 0.00,60.00,Thursday
315,-0.43036888060919206
316,-0.34917762471218358
2,10, 1,10, 0, 9, 0.00,60.00,Thursday
315,-0.30105822655026689
316,-0.19617444120846409
2,10, 1,10, 0,10, 0.00,60.00,Thursday
315,-0.08619157235487664
316,0.05825989425389415
2,10, 1,10, 0,11, 0.00,60.00,Thursday
315,0.11659309537909699
316,0.19237228105661209
2,10, 1,10, 0,12, 0.00,60.00,Thursday
315,0.1422042002665492
316,0.18238726116489008
2,10, 1,10, 0,13, 0.00,60.00,Thursday
315,0.11734273491103786
316,0.13810604827713952
2,10, 1,10, 0,14, 0.00,60.00,Thursday
315,0.10891102696801687
316,0.11912035007586945
2,10, 1,10, 0,15, 0.00,60.00,Thursday
315,0.12826623078757633
316,0.1250049914073455
2,10, 1,10, 0,16, 0.00,60.00,Thursday
315,0.13669949106491703
316,0.12044783659685951
2,10, 1,10, 0,17, 0.00,60.00,Thursday
315,0.11817317030734669
316,0.09082277848579276
2,10, 1,10, 0,18, 0.00,60.00,Thursday
315,0.078566995576624
316,0.043904081010254
2,10, 1,10, 0,19, 0.00,60.00,Thursday
315,0.05129673271572592
316,0.022605896203628335
2,10, 1,10, 0,20, 0.00,60.00,Thursday
315,0.04905252778214848
316,0.03694540267422371
2,10, 1,10, 0,21, 0.00,60.00,Thursday
315,0.05006346442982721
316,0.056953627563204507
2,10, 1,10, 0,22, 0.00,60.00,Thursday
315,0.023840250510236865
316,0.06785524407718785
2,10, 1,10, 0,23, 0.00,60.00,Thursday
315,-0.02421849430423565
316,0.0561096659386419
2,10, 1,10, 0,24, 0.00,60.00,Thursday
315,-0.08918772819976308
316,0.0204609559496529
2,11, 1,11, 0, 1, 0.00,60.00,Friday
315,-0.1665894512950659
316,-0.03357285333946498
2,11, 1,11, 0, 2, 0.00,60.00,Friday
315,-0.2509591102799965
316,-0.09975937632946463
2,11, 1,11, 0, 3, 0.00,60.00,Friday
315,-0.3353129306477343
316,-0.17014182819745955
2,11, 1,11, 0, 4, 0.00,60.00,Friday
315,-0.4193078564395213
316,-0.2432010500356967
2,11, 1,11, 0, 5, 0.00,60.00,Friday
315,-0.4909857656521419
316,-0.3173987174347711
2,11, 1,11, 0, 6, 0.00,60.00,Friday
315,-0.5118435741832308
316,-0.3904890280934323
2,11, 1,11, 0, 7, 0.00,60.00,Friday
315,-0.5116031370114026
316,-0.4591887078493886
2,11, 1,11, 0, 8, 0.00,60.00,Friday
315,-0.4380114553031634
316,-0.4036108442465497
2,11, 1,11, 0, 9, 0.00,60.00,Friday
315,-0.32230816629036659
316,-0.255313672368087
2,11, 1,11, 0,10, 0.00,60.00,Friday
315,-0.11667843291302342
316,0.007272555239984051
2,11, 1,11, 0,11, 0.00,60.00,Friday
315,0.10284629455523728
316,0.1837557724667239
2,11, 1,11, 0,12, 0.00,60.00,Friday
315,0.14196767992051705
316,0.1845872725372711
2,11, 1,11, 0,13, 0.00,60.00,Friday
315,0.11899749693207088
316,0.14082852127645449
2,11, 1,11, 0,14, 0.00,60.00,Friday
315,0.11125298761254217
316,0.12129812882846143
2,11, 1,11, 0,15, 0.00,60.00,Friday
315,0.13082629077685432
316,0.12731645757819147
2,11, 1,11, 0,16, 0.00,60.00,Friday
315,0.13869490214998199
316,0.12295731083205927
2,11, 1,11, 0,17, 0.00,60.00,Friday
315,0.11967730318880239
316,0.09269475003022219
2,11, 1,11, 0,18, 0.00,60.00,Friday
315,0.07871232209817938
316,0.044324070981412517
2,11, 1,11, 0,19, 0.00,60.00,Friday
315,0.04912417528848383
316,0.019970143728024877
2,11, 1,11, 0,20, 0.00,60.00,Friday
315,0.042651834846033378
316,0.030415946864546414
2,11, 1,11, 0,21, 0.00,60.00,Friday
315,0.016480382411423339
316,0.036302638237161979
2,11, 1,11, 0,22, 0.00,60.00,Friday
315,-0.056844280972700559
316,0.00857115374413699
2,11, 1,11, 0,23, 0.00,60.00,Friday
315,-0.13472344793865585
316,-0.03547453616919406
2,11, 1,11, 0,24, 0.00,60.00,Friday
315,-0.2085775587148826
316,-0.08333255963516542
2,12, 1,12, 0, 1, 0.00,60.00,Saturday
315,-0.2762940985170847
316,-0.13109227110283395
2,12, 1,12, 0, 2, 0.00,60.00,Saturday
315,-0.339635130360583
316,-0.1790735273526894
2,12, 1,12, 0, 3, 0.00,60.00,Saturday
315,-0.4037823688657432
316,-0.23118391446335127
2,12, 1,12, 0, 4, 0.00,60.00,Saturday
315,-0.46843569599374126
316,-0.287062169679069
2,12, 1,12, 0, 5, 0.00,60.00,Saturday
315,-0.5063772549524821
316,-0.3465025210932995
2,12, 1,12, 0, 6, 0.00,60.00,Saturday
315,-0.5122247792030676
316,-0.40928564149178128
2,12, 1,12, 0, 7, 0.00,60.00,Saturday
315,-0.5112079439988854
316,-0.47300798249153566
2,12, 1,12, 0, 8, 0.00,60.00,Saturday
315,-0.5096262239489429
316,-0.5076027884684704
2,12, 1,12, 0, 9, 0.00,60.00,Saturday
315,-0.5019611871668965
316,-0.5035929238609046
2,12, 1,12, 0,10, 0.00,60.00,Saturday
315,-0.4606905694430473
316,-0.4153095654096597
2,12, 1,12, 0,11, 0.00,60.00,Saturday
315,-0.3946928112963027
316,-0.2044436417372572
2,12, 1,12, 0,12, 0.00,60.00,Saturday
315,-0.2822975158478883
316,0.06313076967379559
2,12, 1,12, 0,13, 0.00,60.00,Saturday
315,-0.17823317212335694
316,0.1404547031171712
2,12, 1,12, 0,14, 0.00,60.00,Saturday
315,-0.07904919318279516
316,0.13299790560995676
2,12, 1,12, 0,15, 0.00,60.00,Saturday
315,0.056128892320452598
316,0.13399205294352863
2,12, 1,12, 0,16, 0.00,60.00,Saturday
315,0.1357192322232392
316,0.1255277928935714
2,12, 1,12, 0,17, 0.00,60.00,Saturday
315,0.1264395266035033
316,0.09415042199193051
2,12, 1,12, 0,18, 0.00,60.00,Saturday
315,0.08423994252366846
316,0.04620218751418561
2,12, 1,12, 0,19, 0.00,60.00,Saturday
315,0.04939571472304963
316,0.01813493715404595
2,12, 1,12, 0,20, 0.00,60.00,Saturday
315,0.053144653584496649
316,0.048509582092566599
2,12, 1,12, 0,21, 0.00,60.00,Saturday
315,0.023099725450191637
316,0.0633296045994034
2,12, 1,12, 0,22, 0.00,60.00,Saturday
315,-0.02877979501920091
316,0.05962553871780343
2,12, 1,12, 0,23, 0.00,60.00,Saturday
315,-0.0660229779572581
316,0.05969490988806949
2,12, 1,12, 0,24, 0.00,60.00,Saturday
315,-0.10162287650427419
316,0.052388096506713128
2,13, 1,13, 0, 1, 0.00,60.00,Sunday
315,-0.13670963158947345
316,0.038381559671052268
2,13, 1,13, 0, 2, 0.00,60.00,Sunday
315,-0.1697991352187333
316,0.02074200757468389
2,13, 1,13, 0, 3, 0.00,60.00,Sunday
315,-0.20040514477387165
316,0.0012867522954767004
2,13, 1,13, 0, 4, 0.00,60.00,Sunday
315,-0.22937001270716124
316,-0.019746309213564199
2,13, 1,13, 0, 5, 0.00,60.00,Sunday
315,-0.26206327646006158
316,-0.04676452959260378
2,13, 1,13, 0, 6, 0.00,60.00,Sunday
315,-0.30884619152410749
316,-0.08914388499795149
2,13, 1,13, 0, 7, 0.00,60.00,Sunday
315,-0.3663315919604749
316,-0.14347545725870787
2,13, 1,13, 0, 8, 0.00,60.00,Sunday
315,-0.42605676046695448
316,-0.2014637033948999
2,13, 1,13, 0, 9, 0.00,60.00,Sunday
315,-0.4767632126675466
316,-0.2500915960095305
2,13, 1,13, 0,10, 0.00,60.00,Sunday
315,-0.4399355610239259
316,-0.16916473521925563
2,13, 1,13, 0,11, 0.00,60.00,Sunday
315,-0.34335606450026098
316,0.026035222794338666
2,13, 1,13, 0,12, 0.00,60.00,Sunday
315,-0.23583642812082923
316,0.14812266142421677
2,13, 1,13, 0,13, 0.00,60.00,Sunday
315,-0.17098344878228972
316,0.13166910269408914
2,13, 1,13, 0,14, 0.00,60.00,Sunday
315,-0.127064177166257
316,0.11596893092439945
2,13, 1,13, 0,15, 0.00,60.00,Sunday
315,-0.044701195775788567
316,0.12173332196441729
2,13, 1,13, 0,16, 0.00,60.00,Sunday
315,0.07941058132343201
316,0.11955979168611564
2,13, 1,13, 0,17, 0.00,60.00,Sunday
315,0.11761173514541128
316,0.09097416057877284
2,13, 1,13, 0,18, 0.00,60.00,Sunday
315,0.08316562308513578
316,0.042877432256320856
2,13, 1,13, 0,19, 0.00,60.00,Sunday
315,0.032881928858857548
316,0.018232052906975918
2,13, 1,13, 0,20, 0.00,60.00,Sunday
315,-0.019133543639395836
316,0.03770917518553542
2,13, 1,13, 0,21, 0.00,60.00,Sunday
315,-0.08298341759231612
316,0.02548484996730437
2,13, 1,13, 0,22, 0.00,60.00,Sunday
315,-0.16174456636636157
316,-0.013897765107744986
2,13, 1,13, 0,23, 0.00,60.00,Sunday
315,-0.24784721366424565
316,-0.07039070211505474
2,13, 1,13, 0,24, 0.00,60.00,Sunday
315,-0.33346763697194989
316,-0.13449941423173743
2,14, 1,14, 0, 1, 0.00,60.00,Monday
315,-0.4179545254010689
316,-0.20357294169103674
2,14, 1,14, 0, 2, 0.00,60.00,Monday
315,-0.490064915422925
316,-0.2750108032965114
2,14, 1,14, 0, 3, 0.00,60.00,Monday
315,-0.5113347604139102
316,-0.3454530020024386
2,14, 1,14, 0, 4, 0.00,60.00,Monday
315,-0.5117290107283153
316,-0.4144296630492451
2,14, 1,14, 0, 5, 0.00,60.00,Monday
315,-0.5094891447436367
316,-0.4790932001677313
2,14, 1,14, 0, 6, 0.00,60.00,Monday
315,-0.5077739320838484
316,-0.5088555863964834
2,14, 1,14, 0, 7, 0.00,60.00,Monday
315,-0.5066211567806013
316,-0.5122350245769045
2,14, 1,14, 0, 8, 0.00,60.00,Monday
315,-0.4528338572114265
316,-0.4354906298551331
2,14, 1,14, 0, 9, 0.00,60.00,Monday
315,-0.36739732843776876
316,-0.30660508316691439
2,14, 1,14, 0,10, 0.00,60.00,Monday
315,-0.17711187065657714
316,-0.04465252846954054
2,14, 1,14, 0,11, 0.00,60.00,Monday
315,0.05875047122106123
316,0.16851127157926536
2,14, 1,14, 0,12, 0.00,60.00,Monday
315,0.13372990574472955
316,0.18342238833929257
2,14, 1,14, 0,13, 0.00,60.00,Monday
315,0.11443542164329135
316,0.1402848226649396
2,14, 1,14, 0,14, 0.00,60.00,Monday
315,0.10825103054406085
316,0.12069710040463586
2,14, 1,14, 0,15, 0.00,60.00,Monday
315,0.12953611191267443
316,0.1271157029766171
2,14, 1,14, 0,16, 0.00,60.00,Monday
315,0.1412143495947073
316,0.12393804098977072
2,14, 1,14, 0,17, 0.00,60.00,Monday
315,0.12374555901619666
316,0.09620258508646129
2,14, 1,14, 0,18, 0.00,60.00,Monday
315,0.08312847885403661
316,0.04845021140961439
2,14, 1,14, 0,19, 0.00,60.00,Monday
315,0.04972787631641732
316,0.0193736165942498
2,14, 1,14, 0,20, 0.00,60.00,Monday
315,0.04724791917968142
316,0.03526629121944452
2,14, 1,14, 0,21, 0.00,60.00,Monday
315,0.031015692910567755
316,0.0514681038526323
2,14, 1,14, 0,22, 0.00,60.00,Monday
315,-0.029560642821618755
316,0.03625327815189069
2,14, 1,14, 0,23, 0.00,60.00,Monday
315,-0.10485228652670262
316,-0.0032792061637689857
2,14, 1,14, 0,24, 0.00,60.00,Monday
315,-0.18263105425505903
316,-0.05286857512021016
2,15, 1,15, 0, 1, 0.00,60.00,Tuesday
315,-0.25973906699708618
316,-0.10818237042025827
2,15, 1,15, 0, 2, 0.00,60.00,Tuesday
315,-0.3374100371604767
316,-0.1691966707626246
2,15, 1,15, 0, 3, 0.00,60.00,Tuesday
315,-0.4172334930172273
316,-0.2362082842987681
2,15, 1,15, 0, 4, 0.00,60.00,Tuesday
315,-0.4886164407772222
316,-0.30761421953370657
2,15, 1,15, 0, 5, 0.00,60.00,Tuesday
315,-0.5093751334977859
316,-0.37719768525209265
2,15, 1,15, 0, 6, 0.00,60.00,Tuesday
315,-0.5089710739691736
316,-0.4349737866578944