Program Version,EnergyPlus, Version 9.6.0-f420c06a69, YMD=2021.12.22 10:08
1,5,Environment Title[],Latitude[deg],Longitude[deg],Time Zone[],Elevation[m]
2,8,Day of Simulation[],Month[],Day of Month[],DST Indicator[1=yes 0=no],Hour[],StartMinute[],EndMinute[],DayType
3,5,Cumulative Day of Simulation[],Month[],Day of Month[],DST Indicator[1=yes 0=no],DayType  ! When Daily Report Variables Requested
4,2,Cumulative Days of Simulation[],Month[]  ! When Monthly Report Variables Requested
5,1,Cumulative Days of Simulation[] ! When Run Period Report Variables Requested
6,1,Calendar Year of Simulation[] ! When Annual Report Variables Requested
507,1,BLOCK1:ZONE2,Zone Thermostat Operative Temperature [C] !Hourly
508,1,BLOCK1:ZONE1,Zone Thermostat Operative Temperature [C] !Hourly
509,1,BLOCK2:ZONE2,Zone Thermostat Operative Temperature [C] !Hourly
510,1,BLOCK2:ZONE1,Zone Thermostat Operative Temperature [C] !Hourly
1284,1,BLOCK1:ZONE2 VRF INDOOR UNIT DX COOLING COIL,Cooling Coil Total Cooling Rate [W] !Hourly
1310,1,BLOCK1:ZONE1 VRF INDOOR UNIT DX COOLING COIL,Cooling Coil Total Cooling Rate [W] !Hourly
1312,1,BLOCK2:ZONE2 VRF INDOOR UNIT DX COOLING COIL,Cooling Coil Total Cooling Rate [W] !Hourly
1314,1,BLOCK2:ZONE1 VRF INDOOR UNIT DX COOLING COIL,Cooling Coil Total Cooling Rate [W] !Hourly
1316,1,BLOCK1:ZONE2 VRF INDOOR UNIT DX HEATING COIL,Heating Coil Heating Rate [W] !Hourly
1330,1,BLOCK1:ZONE1 VRF INDOOR UNIT DX HEATING COIL,Heating Coil Heating Rate [W] !Hourly
1332,1,BLOCK2:ZONE2 VRF INDOOR UNIT DX HEATING COIL,Heating Coil Heating Rate [W] !Hourly
1334,1,BLOCK2:ZONE1 VRF INDOOR UNIT DX HEATING COIL,Heating Coil Heating Rate [W] !Hourly
End of Data Dictionary
1,UNTITLED (O1-O1:31-12),  36.18, 140.42,   9.00,  35.00
2,1, 1, 1, 0, 1, 0.00,60.00,Sunday
507,15.749523182098965
508,15.734257525565077
509,15.736862849241778
510,15.728085693323717
1284,0.0
1310,0.0
1312,0.0
1314,0.0
1316,415.1971776341461
1330,650.7635766750817
1332,675.3189140113666
1334,291.33645715976036
2,1, 1, 1, 0, 2, 0.00,60.00,Sunday
507,15.742851240015797
508,15.731232454293586
509,15.735781833807522
510,15.72931544261796
1284,0.0
1310,0.0
1312,0.0
1314,0.0
1316,421.4443290774899
1330,673.9489626365221
1332,696.3860332660383
1334,304.32269476942486
2,1, 1, 1, 0, 3, 0.00,60.00,Sunday
507,15.73346043580938
508,15.722353289010972
509,15.729017489140045
510,15.723136859758746
1284,0.0
1310,0.0
1312,0.0
1314,0.0
1316,454.3961832253201
1330,746.4931658694106
1332,742.1559695981316
1334,330.132056194507
2,1, 1, 1, 0, 4, 0.00,60.00,Sunday
507,15.735136852058156
508,15.725305051948055
509,15.733820800792387
510,15.728243706175641
1284,0.0
1310,0.0
1312,0.0
1314,0.0
1316,477.743616899882
1330,795.3393677668714
1332,764.7299599736414
1334,345.0545014988131
2,1, 1, 1, 0, 5, 0.00,60.00,Sunday
507,15.735942342365309
508,15.727377380346557
509,15.734084360605607
510,15.729662770899605
1284,0.0
1310,0.0
1312,0.0
1314,0.0
1316,498.905428757554
1330,841.6115478341837
1332,791.6191772530749
1334,360.59491157477777
2,1, 1, 1, 0, 6, 0.00,60.00,Sunday
507,15.736317997446475
508,15.72855252907294
509,15.732947842580877
510,15.729312044084244
1284,0.0
1310,0.0
1312,0.0
1314,0.0
1316,520.8358597747233
1330,888.4617242769078
1332,824.2192372379743
1334,378.62352240161886
2,1, 1, 1, 0, 7, 0.00,60.00,Sunday
507,15.748846550181796
508,15.75066149754553
509,15.745282940271661
510,15.746069480723303
1284,0.0
1310,0.0
1312,0.0
1314,0.0
1316,533.5012820198756
1330,897.792309663319
1332,827.3011070503374
1334,378.4516107631446
2,1, 1, 1, 0, 8, 0.00,60.00,Sunday
507,15.814079921162731
508,15.85143978238297
509,15.809102587090564
510,15.828049420848567
1284,0.0
1310,0.0
1312,0.0
1314,0.0
1316,441.94580431503203
1330,651.4418302249796
1332,657.8267875985084
1334,276.9655159450198
2,1, 1, 1, 0, 9, 0.00,60.00,Sunday
507,15.920939306927952
508,16.059786785669527
509,15.918995393066561
510,16.007363162330343
1284,0.0
1310,0.0
1312,0.0
1314,0.0
1316,215.50753392580566
1330,92.19168889856424
1332,265.5372141100231
1334,38.71356074704317
2,1, 1, 1, 0,10, 0.00,60.00,Sunday
507,15.915562529555798
508,16.240931283875767
509,15.945201032293667
510,16.242160960980613
1284,0.0
1310,0.0
1312,0.0
1314,0.0
1316,69.43261955036112
1330,0.0
1332,20.898388833618036
1334,0.0
2,1, 1, 1, 0,11, 0.00,60.00,Sunday
507,15.881958578386916
508,16.3262852791291
509,16.00936761142231
510,16.452480020667473
1284,0.0
1310,0.0
1312,0.0
1314,0.0
1316,7.78725958134038
1330,0.0
1332,0.0
1334,0.0
2,1, 1, 1, 0,12, 0.00,60.00,Sunday
507,15.960375618862344
508,16.471802864349392
509,16.172809081851142
510,16.697337287613877
1284,0.0
1310,0.0
1312,0.0
1314,0.0
1316,0.0
1330,0.0
1332,0.0
1334,0.0
2,1, 1, 1, 0,13, 0.00,60.00,Sunday
507,16.06968089311772
508,16.641822788998997
509,16.356626982578476
510,16.94638086570293
1284,0.0
1310,0.0
1312,0.0
1314,0.0
1316,0.0
1330,0.0
1332,0.0
1334,0.0
2,1, 1, 1, 0,14, 0.00,60.00,Sunday
507,16.10646057397114
508,16.746788525639964
509,16.480185984687573
510,17.108766667908046
1284,0.0
1310,0.0
1312,0.0
1314,0.0
1316,0.0
1330,0.0
1332,0.0
1334,0.0
2,1, 1, 1, 0,15, 0.00,60.00,Sunday
507,16.018923062934746
508,16.656912347613872
509,16.47769771686695
510,17.054818572308015
1284,0.0
1310,0.0
1312,0.0
1314,0.0
1316,0.0
1330,0.0
1332,0.0
1334,0.0
2,1, 1, 1, 0,16, 0.00,60.00,Sunday
507,15.79561152136291
508,16.375851090011643
509,16.293612394037034
510,16.798287464833862
1284,0.0
1310,0.0
1312,0.0
1314,0.0
1316,37.35938554935087
1330,0.0
1332,0.0
1334,0.0
2,1, 1, 1, 0,17, 0.00,60.00,Sunday
507,15.676735051763238
508,16.027563780797152
509,15.987331825630582
510,16.44953377503629
1284,0.0
1310,0.0
1312,0.0
1314,0.0
1316,153.10411504369932
1330,11.877357625455966
1332,5.568512037243059
1334,0.0
2,1, 1, 1, 0,18, 0.00,60.00,Sunday
507,15.653169170429024
508,15.80372654834465
509,15.763581024548238
510,16.100808652506906
1284,0.0
1310,0.0
1312,0.0
1314,0.0
1316,212.80399641855615
1330,172.638102953091
1332,132.23079432798028
1334,0.0
2,1, 1, 1, 0,19, 0.00,60.00,Sunday
507,15.675019605733182
508,15.72401889968814
509,15.689743293446092
510,15.84061445825468
1284,0.0
1310,0.0
1312,0.0
1314,0.0
1316,244.51375800089392
1330,263.4397667846557
1332,255.89306655037512
1334,37.67404896826092
2,1, 1, 1, 0,20, 0.00,60.00,Sunday
507,15.69027612435119
508,15.687049942007528
509,15.668069611037158
510,15.718218387294112
1284,0.0
1310,0.0
1312,0.0
1314,0.0
1316,292.8482300177261
1330,366.2040350205849
1332,373.3038571287056
1334,110.23585664498731
2,1, 1, 1, 0,21, 0.00,60.00,Sunday
507,15.70368347729719
508,15.679188091267633
509,15.67247396800455
510,15.676733009793711
1284,0.0
1310,0.0
1312,0.0
1314,0.0
1316,339.07266986522814
1330,463.86517562390327
1332,474.3932975854758
1334,168.11745923566977
2,1, 1, 1, 0,22, 0.00,60.00,Sunday
507,15.713037297855566
508,15.684896854127333
509,15.68412894654957
510,15.672679278567735
1284,0.0
1310,0.0
1312,0.0
1314,0.0
1316,380.0697390948675
1330,553.5829881847194
1332,559.5661764536962
1334,218.11289527582483
2,1, 1, 1, 0,23, 0.00,60.00,Sunday
507,15.714194250471364
508,15.687468028128025
509,15.691591605641369
510,15.677544389047652
1284,0.0
1310,0.0
1312,0.0
1314,0.0
1316,438.68886075607634
1330,675.7782552659316
1332,645.6466991618229
1334,266.85309711392705
2,1, 1, 1, 0,24, 0.00,60.00,Sunday
507,15.72565875648316
508,15.70363308991664
509,15.708147360229365
510,15.696286207470369
1284,0.0
1310,0.0
1312,0.0
1314,0.0
1316,464.16553694076146
1330,734.1198440410627
1332,695.4848318416655
1334,296.5983069800669
2,2, 1, 2, 0, 1, 0.00,60.00,Monday
507,15.727195974706618
508,15.70882529455628
509,15.71359979601201
510,15.704302728637602
1284,0.0
1310,0.0
1312,0.0
1314,0.0
1316,497.93796163236635
1330,808.4377099212298
1332,751.493641422072
1334,327.9884811080341
2,2, 1, 2, 0, 2, 0.00,60.00,Monday
507,15.73209431318788
508,15.717110106702025
509,15.721872902540909
510,15.714584776950701
1284,0.0
1310,0.0
1312,0.0
1314,0.0
1316,519.7194580572652
1330,856.1045323114321
1332,791.881251939209
1334,351.4631520674263
2,2, 1, 2, 0, 3, 0.00,60.00,Monday
507,15.738480822948027
508,15.727261767578492
509,15.73281615128166
510,15.727250093208582
1284,0.0
1310,0.0
1312,0.0
1314,0.0
1316,525.6370698137375
1330,877.5814334686463
1332,806.6644199442931
1334,361.692402434217
2,2, 1, 2, 0, 4, 0.00,60.00,Monday
507,15.738182647894018
508,15.728553400460967
509,15.73325657737991
510,15.728443762407332
1284,0.0
1310,0.0
1312,0.0
1314,0.0
1316,539.4774335249872
1330,910.1888353094757
1332,835.2971756732715
1334,378.7059846209246
2,2, 1, 2, 0, 5, 0.00,60.00,Monday
507,15.741057441810316
508,15.733532294214175
509,15.738439051917087
510,15.734453442628611
1284,0.0
1310,0.0
1312,0.0
1314,0.0
1316,545.5235453525024
1330,929.6901399002146
1332,848.4107210009579
1334,387.66791794060606
2,2, 1, 2, 0, 6, 0.00,60.00,Monday
507,15.73831109532794
508,15.731268432585516
509,15.735555637749618
510,15.731883133802054
1284,0.0
1310,0.0
1312,0.0
1314,0.0
1316,565.3452492786369
1330,973.7266420960942
1332,878.1088052579104
1334,404.6217520397748
2,2, 1, 2, 0, 7, 0.00,60.00,Monday
507,15.742318621941827
508,15.737067192325453
509,15.739469994183473
510,15.736816301108483
1284,0.0
1310,0.0
1312,0.0
1314,0.0
1316,581.4768505212852
1330,1006.6275716494692
1332,895.8383321913593
1334,415.083266982538
2,2, 1, 2, 0, 8, 0.00,60.00,Monday
507,15.830667043969976
508,15.870717323372578
509,15.860599037661174
510,15.8242793864337
1284,0.0
1310,0.0
1312,0.0
1314,0.0
1316,197.38614722923148
1330,57.85580488157676
1332,21.691864665950366
1334,58.03976084611105
2,2, 1, 2, 0, 9, 0.00,60.00,Monday
507,16.006054550447267
508,16.445831558545247
509,16.305067213930407
510,16.247498971070655
1284,0.0
1310,0.0
1312,0.0
1314,0.0
1316,16.160079973976124
1330,0.0
1332,0.0
1334,0.0
2,2, 1, 2, 0,10, 0.00,60.00,Monday
507,16.902760542464378
508,18.29441768825472
509,17.439517883294567
510,17.89602954972879
1284,0.0
1310,0.0
1312,0.0
1314,0.0
1316,0.0
1330,0.0
1332,0.0
1334,0.0
2,2, 1, 2, 0,11, 0.00,60.00,Monday
507,17.721374440409598
508,15.371415058394481
509,18.490372790441135
510,16.5945456167264
1284,0.0
1310,0.0
1312,0.0
1314,0.0
1316,0.0
1330,4521.147914652765
1332,0.0
1334,2098.819255083612
2,2, 1, 2, 0,12, 0.00,60.00,Monday
507,18.1407183121932
508,16.698980112273777
509,14.559286135211945
510,19.3843898074861
1284,0.0
1310,0.0
1312,0.0
1314,0.0
1316,0.0
1330,4424.077515728171
1332,4366.836077788085
1334,71.14490033879048
2,2, 1, 2, 0,13, 0.00,60.00,Monday
507,18.602630111475236
508,18.771065704616543
509,18.857759596998932
510,16.448619751228037
1284,0.0
1310,0.0
1312,0.0
1314,0.0
1316,0.0
1330,197.1820459441559
1332,0.0
1334,2087.1530808114776
2,2, 1, 2, 0,14, 0.00,60.00,Monday
507,15.515327225499401
508,16.769451930066168
509,15.758791735602633
510,17.86372001457391
1284,0.0
1310,0.0
1312,0.0
1314,0.0
1316,1843.7476708731147
1330,4671.622989868667
1332,4569.5941290461205
1334,2094.435063452824
2,2, 1, 2, 0,15, 0.00,60.00,Monday
507,18.28399870191545
508,16.72135027612626
509,16.003984702466283
510,16.17012456348015
1284,0.0
1310,0.0
1312,0.0
1314,0.0
1316,0.0
1330,4285.850598807473
1332,4186.445213709636
1334,2055.317436366076
2,2, 1, 2, 0,16, 0.00,60.00,Monday
507,18.523584819144343
508,17.782039568013584
509,17.626254903738687
510,18.135678905207286
1284,0.0
1310,0.0
1312,0.0
1314,0.0
1316,0.0
1330,346.53869004669673
1332,327.3782219665566
1334,86.3269745933215
2,2, 1, 2, 0,17, 0.00,60.00,Monday
507,18.1074119179253
508,16.013824617475386
509,15.870284135208866
510,14.887817704421398
1284,0.0
1310,0.0
1312,0.0
1314,0.0
1316,0.0
1330,4377.949135475297
1332,4277.774327282834
1334,2173.4420051694433
2,2, 1, 2, 0,18, 0.00,60.00,Monday
507,17.801618222086564
508,16.84773594049414
509,16.979308354093682
510,17.873295356195513
1284,0.0
1310,0.0
1312,0.0
1314,0.0
1316,0.0
1330,403.73048483992545
1332,377.42790591897824
1334,0.0
2,2, 1, 2, 0,19, 0.00,60.00,Monday
507,17.45588107457612
508,17.661479169373333
509,17.72017204956218
510,18.124379411732917
1284,0.0
1310,0.0
1312,0.0
1314,0.0
1316,0.0
1330,0.0
1332,0.0
1334,0.0
2,2, 1, 2, 0,20, 0.00,60.00,Monday
507,16.82793296916421
508,17.41805540673747
509,17.50143704825883
510,17.82969458651047
1284,0.0
1310,0.0
1312,0.0
1314,0.0
1316,0.0
1330,0.0
1332,0.0
1334,0.0
2,2, 1, 2, 0,21, 0.00,60.00,Monday
507,16.06176973676301
508,16.756828962352095
509,16.869903914724897
510,17.24245017431729
1284,0.0
1310,0.0
1312,0.0
1314,0.0
1316,29.818206115797434
1330,0.0
1332,0.0
1334,0.0
2,2, 1, 2, 0,22, 0.00,60.00,Monday
507,15.764041708160427
508,16.144420143875934
509,16.295378897319488
510,16.722158015825876
1284,0.0
1310,0.0
1312,0.0
1314,0.0
1316,141.51998806598658
1330,0.0
1332,0.0
1334,0.0
2,2, 1, 2, 0,23, 0.00,60.00,Monday
507,15.700246648461725
508,15.810273449718572
509,15.904854873008377
510,16.32651148639232
1284,0.0
1310,0.0
1312,0.0
1314,0.0
1316,194.54305795128312
1330,126.89240814903914
1332,41.432546407136705
1334,0.0
2,2, 1, 2, 0,24, 0.00,60.00,Monday
507,15.671611228386904
508,15.716972775061276
509,15.7430758319209
510,16.015052994639852
1284,0.0
1310,0.0
1312,0.0
1314,0.0
1316,226.94410904955595
1330,250.18460748265892
1332,197.68081451676647
1334,0.0
2,3, 1, 3, 0, 1, 0.00,60.00,Tuesday
507,15.661640934062481
508,15.678025247435325
509,15.682797396107018
510,15.793988894436465
1284,0.0
1310,0.0
1312,0.0
1314,0.0
1316,281.20587429756165
1330,366.87656362347377
1332,333.70766765842785
1334,59.50053621272497
2,3, 1, 3, 0, 2, 0.00,60.00,Tuesday
507,15.681492527031462
508,15.676154978423115
509,15.683027800481703
510,15.712671825171022
1284,0.0
1310,0.0
1312,0.0
1314,0.0
1316,292.57035488736744
1330,393.26793919332886
1332,401.4094640897008
1334,108.79916628769766
2,3, 1, 3, 0, 3, 0.00,60.00,Tuesday
507,15.691369899487439
508,15.667539600630128
509,15.68560227406556
510,15.678607668859701
1284,0.0
1310,0.0
1312,0.0
1314,0.0
1316,331.8031132313533
1330,455.8900942295013
1332,478.9697935034048
1334,155.42521542652935
2,3, 1, 3, 0, 4, 0.00,60.00,Tuesday
507,15.705945596331233
508,15.674108177540585
509,15.69848706416964
510,15.678509811494347
1284,0.0
1310,0.0
1312,0.0
1314,0.0
1316,356.2240309764477
1330,506.87765038867343
1332,532.70060187681
1334,189.60921783290166
2,3, 1, 3, 0, 5, 0.00,60.00,Tuesday
507,15.714433285511731
508,15.684860597325162
509,15.705821040596815
510,15.685812402602325
1284,0.0
1310,0.0
1312,0.0
1314,0.0
1316,379.4365620521902
1330,558.859161320464
1332,586.5875866441947
1334,222.93649898465674
2,3, 1, 3, 0, 6, 0.00,60.00,Tuesday
507,15.703946117615493
508,15.676798723533569
509,15.696273697084326
510,15.67896107192673
1284,0.0
1310,0.0
1312,0.0
1314,0.0
1316,461.8515273638087
1330,718.3774055211461
1332,686.2314442280814
1334,276.45744696999446
2,3, 1, 3, 0, 7, 0.00,60.00,Tuesday
507,15.72964593375378
508,15.716494225721775
509,15.722463564197072
510,15.71236622444693
1284,0.0
1310,0.0
1312,0.0
1314,0.0
1316,484.9377134816244
1330,753.3513171236723
1332,709.0587519091357
1334,290.6661151109154
2,3, 1, 3, 0, 8, 0.00,60.00,Tuesday
507,15.888788041311699
508,16.201310550677526
509,16.059599090375475
510,16.05479637332926
1284,0.0
1310,0.0
1312,0.0
1314,0.0
1316,65.62961634651732
1330,0.0
1332,0.0
1334,0.0
2,3, 1, 3, 0, 9, 0.00,60.00,Tuesday
507,16.56711323862701
508,17.768326209396037
509,17.027411446722674
510,17.347281157783698
1284,0.0
1310,0.0
1312,0.0
1314,0.0
1316,0.0
1330,0.0
1332,0.0
1334,0.0
2,3, 1, 3, 0,10, 0.00,60.00,Tuesday
507,17.633786287092953
508,16.449765143022145
509,18.258171897214794
510,15.954693959253708
1284,0.0
1310,0.0
1312,0.0
1314,0.0
1316,0.0
1330,4315.522121106776
1332,0.0
1334,1985.725180720117
2,3, 1, 3, 0,11, 0.00,60.00,Tuesday
507,18.476178484502444
508,19.002773930981107
509,16.44473966550464
510,19.06297527579352
1284,0.0
1310,0.0
1312,0.0
1314,0.0
1316,0.0
1330,263.17690571570387
1332,4388.087771146263
1334,77.48962993495233
2,3, 1, 3, 0,12, 0.00,60.00,Tuesday
507,18.75799327055736
508,17.1316327228727
509,18.110163696023143
510,17.56861906976031
1284,0.0
1310,0.0
1312,0.0
1314,0.0
1316,0.0
1330,4511.349262003631
1332,174.88318926487625
1334,2087.226537452009
2,3, 1, 3, 0,13, 0.00,60.00,Tuesday
507,15.756356871613505
508,18.221452344948958
509,16.38973416887593
510,17.904594691031438
1284,0.0
1310,0.0
1312,0.0
1314,0.0
1316,1837.1324287357616
1330,1288.265765721848
1332,4603.7583037379145
1334,1119.2949952866231
2,3, 1, 3, 0,14, 0.00,60.00,Tuesday
507,16.87598374243833
508,17.701394203112525
509,17.741248011838955
510,17.890500282861417
1284,0.0
1310,0.0
1312,0.0
1314,0.0
1316,1795.5450395206806
1330,1483.2157050426056
1332,4484.77824828666
1334,471.66014372024165
2,3, 1, 3, 0,15, 0.00,60.00,Tuesday
507,18.46586790699459
508,17.67673746523328
509,17.132795316357928
510,17.698968028665057
1284,0.0
1310,0.0
1312,0.0
1314,0.0
1316,29.464364605436117
1330,2993.839559832478
1332,4473.830798373727
1334,882.1795674203441
2,3, 1, 3, 0,16, 0.00,60.00,Tuesday
507,16.22684070442636
508,17.28574094625432
509,19.17158452848112
510,17.438170423461337
1284,0.0
1310,0.0
1312,0.0
1314,0.0
1316,1843.4853825434398
1330,4484.958955739781
1332,54.35419160271991
1334,1251.4735049611718
2,3, 1, 3, 0,17, 0.00,60.00,Tuesday
507,18.36008466224034
508,18.820443627726267
509,16.12796682805532
510,16.38474221407843
1284,0.0
1310,0.0
1312,0.0
1314,0.0
1316,0.0
1330,45.39675116139222
1332,4473.368922396461
1334,2094.955312791359
2,3, 1, 3, 0,18, 0.00,60.00,Tuesday
507,18.211538772183808
508,15.421659701994017
509,15.170222113005913
510,15.86211418907551
1284,0.0
1310,0.0
1312,0.0
1314,0.0
1316,0.0
1330,4590.029870596332
1332,3081.74115487391
1334,1887.543368010717
2,3, 1, 3, 0,19, 0.00,60.00,Tuesday
507,17.973261252245717
508,18.44270973052282
509,16.824806373410837
510,17.338878490929137
1284,0.0
1310,0.0
1312,0.0
1314,0.0
1316,0.0
1330,0.0
1332,426.0291615387456
1334,128.9841388908012
2,3, 1, 3, 0,20, 0.00,60.00,Tuesday
507,16.793452948124404
508,13.250083936768057
509,17.223705791638256
510,17.604757220736733
1284,0.0
1310,0.0
1312,0.0
1314,0.0
1316,0.0
1330,3247.9586756083463
1332,0.0
1334,0.0
2,3, 1, 3, 0,21, 0.00,60.00,Tuesday
507,15.984520501131676
508,15.826139889348779
509,16.75687177338156
510,17.242237239130112
1284,0.0
1310,0.0
1312,0.0
1314,0.0
1316,3.481551728823647
1330,104.40499715822271
1332,0.0
1334,0.0
2,3, 1, 3, 0,22, 0.00,60.00,Tuesday
507,15.725426492317208
508,15.78200998551862
509,16.346221762409336
510,16.883229225311503
1284,0.0
1310,0.0
1312,0.0
1314,0.0
1316,136.46878438076587
1330,19.04066420722178
1332,0.0
1334,0.0
2,3, 1, 3, 0,23, 0.00,60.00,Tuesday
507,15.697774478474148
508,15.733259535170578
509,16.047953556109434
510,16.60741017503357
1284,0.0
1310,0.0
1312,0.0
1314,0.0
1316,157.4241611336037
1330,54.11115945264841
1332,0.0
1334,0.0
2,3, 1, 3, 0,24, 0.00,60.00,Tuesday
507,15.686400492594379
508,15.70268463657948
509,15.828045401077357
510,16.347750938233585
1284,0.0
1310,0.0
1312,0.0
1314,0.0
1316,190.7971647402846
1330,130.12889916638215
1332,73.64322990256278
1334,0.0
2,4, 1, 4, 0, 1, 0.00,60.00,Wednesday
507,15.667865006689327
508,15.678415841202286
509,15.712067440641153
510,16.062224607031304
1284,0.0
1310,0.0
1312,0.0
1314,0.0
1316,244.98795525830886
1330,269.65032409730736
1332,214.86355956396704
1334,0.0
2,4, 1, 4, 0, 2, 0.00,60.00,Wednesday
507,15.674909544389806
508,15.681977452926095
509,15.68278084538599
510,15.836086194248097
1284,0.0
1310,0.0
1312,0.0
1314,0.0
1316,262.4407028309618
1330,332.79370069375125
1332,301.9062344838434
1334,23.728340836348483
2,4, 1, 4, 0, 3, 0.00,60.00,Wednesday
507,15.679180664085113
508,15.67680292910002
509,15.671935741300175
510,15.720596790023375
1284,0.0
1310,0.0
1312,0.0
1314,0.0
1316,301.0385319249779
1330,409.02620054778913
1332,395.3912808193987
1334,87.19033870243742
2,4, 1, 4, 0, 4, 0.00,60.00,Wednesday
507,15.690231815399759
508,15.673731470461654
509,15.676575696449236
510,15.675053164292192
1284,0.0
1310,0.0
1312,0.0
1314,0.0
1316,337.2762758959902
1330,465.00340114219443
1332,484.50659026079916
1334,140.06376743286162
2,4, 1, 4, 0, 5, 0.00,60.00,Wednesday
507,15.702997751552449
508,15.67808470044459
509,15.690898478609574
510,15.666953538555884
1284,0.0
1310,0.0
1312,0.0
1314,0.0
1316,363.8785273665178
1330,510.51657612436645
1332,550.0653062208062
1334,175.9698724445634
2,4, 1, 4, 0, 6, 0.00,60.00,Wednesday
507,15.715178746847478
508,15.68672526073433
509,15.706933543382426
510,15.679296230508903
1284,0.0
1310,0.0
1312,0.0
1314,0.0
1316,382.89777418348547
1330,545.6040196210672
1332,591.0414197159575
1334,207.20564167368454
2,4, 1, 4, 0, 7, 0.00,60.00,Wednesday
507,15.729907133616514
508,15.71147589201157
509,15.722454280166186
510,15.702464873155947
1284,0.0
1310,0.0
1312,0.0
1314,0.0
1316,399.70323222918836
1330,569.0545491511245
1332,619.9145963021825
1334,227.3283833865342
2,4, 1, 4, 0, 8, 0.00,60.00,Wednesday
507,15.901704583211487
508,16.297317450719007
509,16.124956942356746
510,16.147368432496616
1284,0.0
1310,0.0
1312,0.0
1314,0.0
1316,35.63653508395213
1330,0.0
1332,0.0
1334,0.0
2,4, 1, 4, 0, 9, 0.00,60.00,Wednesday
507,16.704654621123975
508,18.01435114966465
509,17.19045827654881
510,17.572296750792994
1284,0.0
1310,0.0
1312,0.0
1314,0.0
1316,0.0
1330,0.0
1332,0.0
1334,0.0
2,4, 1, 4, 0,10, 0.00,60.00,Wednesday
507,17.84885562574799
508,16.818166176008962
509,18.48946564158783
510,16.410622844841775
1284,0.0
1310,0.0
1312,0.0
1314,0.0
1316,0.0
1330,4321.1452720770685
1332,0.0
1334,1996.2180304662734
2,4, 1, 4, 0,11, 0.00,60.00,Wednesday
507,18.69402556739905
508,19.147883340482004
509,15.20042980772479
510,19.400535979874483
1284,0.0
1310,0.0
1312,0.0
1314,0.0
1316,0.0
1330,149.7646373395979
1332,4491.368028381252
1334,69.27203710021692
2,4, 1, 4, 0,12, 0.00,60.00,Wednesday
507,15.083303387196855
508,16.779331591573204
509,18.786786918848257
510,17.28468926942236
1284,0.0
1310,0.0
1312,0.0
1314,0.0
1316,1837.8286486449133
1330,4401.214024256902
1332,0.0
1334,2027.9701717281073
2,4, 1, 4, 0,13, 0.00,60.00,Wednesday
507,18.50582954231973
508,18.331451542788415
509,16.643318116268375
510,17.906966002977192
1284,0.0
1310,0.0
1312,0.0
1314,0.0
1316,0.0
1330,1062.1405911699746
1332,4515.946569134652
1334,1458.9307116101504
2,4, 1, 4, 0,14, 0.00,60.00,Wednesday
507,16.28952061601555
508,17.62713865371895
509,17.721478758224283
510,17.875978316687892
1284,0.0
1310,0.0
1312,0.0
1314,0.0
1316,1832.4763749869899
1330,3249.4834421263286
1332,4441.871320728477
1334,670.9915065830803
2,4, 1, 4, 0,15, 0.00,60.00,Wednesday
507,16.54706898753002
508,17.243395103748
509,16.356341264053224
510,17.580477151116504
1284,0.0
1310,0.0
1312,0.0
1314,0.0
1316,1796.366664441664
1330,4602.920725863946
1332,4498.6565445100605
1334,2114.908194861902
2,4, 1, 4, 0,16, 0.00,60.00,Wednesday
507,17.667077719079714
508,19.26991997061061
509,18.693903019645386
510,16.33663501150357
1284,0.0
1310,0.0
1312,0.0
1314,0.0
1316,61.20332367736557
1330,157.15748591263673
1332,168.64320368575204
1334,2132.202025187059
2,4, 1, 4, 0,17, 0.00,60.00,Wednesday
507,18.33668535023684
508,15.66795815870902
509,15.225657798144185
510,16.527503272567508
1284,0.0
1310,0.0
1312,0.0
1314,0.0
1316,0.0
1330,4736.395526271102
1332,4549.482324105101
1334,2087.6695017872244
2,4, 1, 4, 0,18, 0.00,60.00,Wednesday
507,18.20317413840251
508,18.793712753619516
509,18.540272967806068
510,17.797302953105532
1284,0.0
1310,0.0
1312,0.0
1314,0.0
1316,0.0
1330,0.0
1332,0.0
1334,61.77621895841346
2,4, 1, 4, 0,19, 0.00,60.00,Wednesday
507,17.58208057716461
508,13.642705228432051
509,13.761988315409152
510,18.50386968355054
1284,0.0
1310,0.0
1312,0.0
1314,0.0
1316,0.0
1330,3080.1056027131262
1332,3439.9475105237107
1334,0.0
2,4, 1, 4, 0,20, 0.00,60.00,Wednesday
507,16.598131128174035
508,16.54935701195312
509,16.70351716937027
510,12.903329238340275
1284,0.0
1310,0.0
1312,0.0
1314,0.0
1316,0.0
1330,0.0
1332,0.0
1334,1391.6719583077877
2,4, 1, 4, 0,21, 0.00,60.00,Wednesday
507,15.846439540126692
508,16.333777159381885
509,16.339967722875485
510,15.892622097702738
1284,0.0
1310,0.0
1312,0.0
1314,0.0
1316,39.43830409416707
1330,0.0
1332,0.0
1334,22.499790575833316
2,4, 1, 4, 0,22, 0.00,60.00,Wednesday
507,15.711327152525044
508,16.079384029416957
509,16.000981273375693
510,15.908102743379391
1284,0.0
1310,0.0
1312,0.0
1314,0.0
1316,128.59634242741674
1330,0.0
1332,0.0
1334,0.0
2,4, 1, 4, 0,23, 0.00,60.00,Wednesday
507,15.69350628267135
508,15.905850207832906
509,15.807601110317801
510,15.849358019026255
1284,0.0
1310,0.0
1312,0.0
1314,0.0
1316,154.86043419375198
1330,0.0
1332,80.49726192486334
1334,0.0
2,4, 1, 4, 0,24, 0.00,60.00,Wednesday
507,15.685095568677326
508,15.7720683432726
509,15.720006706303776
510,15.75362444432848
1284,0.0
1310,0.0
1312,0.0
1314,0.0
1316,180.16711395355577
1330,57.65113589743304
1332,195.01049602813157
1334,23.137486203717224
2,5, 1, 5, 0, 1, 0.00,60.00,Thursday
507,15.677513889542812
508,15.712596738925722
509,15.690932986504375
510,15.703568765721672
1284,0.0
1310,0.0
1312,0.0
1314,0.0
1316,204.5135512921504
1330,161.1815580042443
1332,284.55121694247754
1334,68.80830712341964
2,5, 1, 5, 0, 2, 0.00,60.00,Thursday
507,15.678856804592082
508,15.693206441906092
509,15.68778146368952
510,15.686191067101598
1284,0.0
1310,0.0
1312,0.0
1314,0.0
1316,231.87670633348984
1330,235.25279691046788
1332,347.69226727980146
1334,103.71907032612873
2,5, 1, 5, 0, 3, 0.00,60.00,Thursday
507,15.688852362243157
508,15.689088357281008
509,15.69648279082725
510,15.685176589381392
1284,0.0
1310,0.0
1312,0.0
1314,0.0
1316,252.58019596832824
1330,284.51964216048384
1332,397.1076301820235
1334,129.81406578261658
2,5, 1, 5, 0, 4, 0.00,60.00,Thursday
507,15.699544023370084
508,15.686960964649547
509,15.70381644031815
510,15.686658512076999
1284,0.0
1310,0.0
1312,0.0
1314,0.0
1316,278.9142258358546
1330,326.08322525479616
1332,444.87252856031364
1334,152.33251954570852
2,5, 1, 5, 0, 5, 0.00,60.00,Thursday
507,15.71260707658852
508,15.691449903214203
509,15.714826107462173
510,15.697724342951886
1284,0.0
1310,0.0
1312,0.0
1314,0.0
1316,287.8217314972543
1330,350.46049441310765
1332,474.03152459521056
1334,171.01608530181863
2,5, 1, 5, 0, 6, 0.00,60.00,Thursday
507,15.722607343208692
508,15.699777103123365
509,15.721033934049542
510,15.706549603447087
1284,0.0
1310,0.0
1312,0.0
1314,0.0
1316,290.030305390163
1330,362.56097363099366
1332,503.0525066736985
1334,188.8135532675576
2,5, 1, 5, 0, 7, 0.00,60.00,Thursday
507,15.721783036764855
508,15.699470846450545
509,15.720261961711167
510,15.708065778745006
1284,0.0
1310,0.0
1312,0.0
1314,0.0
1316,318.62248271556086
1330,423.28329144665
1332,548.1673236628862
1334,213.94946306725382
2,5, 1, 5, 0, 8, 0.00,60.00,Thursday
507,15.804387185472542
508,16.16836428880361
509,16.040062301775116
510,15.952807695501585
1284,0.0
1310,0.0
1312,0.0
1314,0.0
1316,9.856906738876646
1330,0.0
1332,0.0
1334,0.0
2,5, 1, 5, 0, 9, 0.00,60.00,Thursday
507,16.0258892412124
508,16.73033282513222
509,16.50490235979295
510,16.3389058389848
1284,0.0
1310,0.0
1312,0.0
1314,0.0
1316,0.0
1330,0.0
1332,0.0
1334,0.0
2,5, 1, 5, 0,10, 0.00,60.00,Thursday
507,16.543780213389553
508,17.409748278178164
509,17.14906158843723
510,16.924268884033943
1284,0.0
1310,0.0
1312,0.0
1314,0.0
1316,0.0
1330,0.0
1332,0.0
1334,0.0
2,5, 1, 5, 0,11, 0.00,60.00,Thursday
507,17.177397145326463
508,18.158558184500663
509,17.89447714021358
510,17.6500496200077
1284,0.0
1310,0.0
1312,0.0
1314,0.0
1316,0.0
1330,0.0
1332,0.0
1334,0.0
2,5, 1, 5, 0,12, 0.00,60.00,Thursday
507,17.711510783212102
508,18.723903248260626
509,18.526784619367383
510,18.22830961458653
1284,0.0
1310,0.0
1312,0.0
1314,0.0
1316,0.0
1330,0.0
1332,0.0
1334,0.0
2,5, 1, 5, 0,13, 0.00,60.00,Thursday
507,18.14338909520327
508,15.828675950091691
509,15.474346650806002
510,18.53506895526448
1284,0.0
1310,0.0
1312,0.0
1314,0.0
1316,0.0
1330,4809.31991951879
1332,4718.357906296052
1334,0.0
2,5, 1, 5, 0,14, 0.00,60.00,Thursday
507,18.500055416202773
508,18.725322636961167
509,18.590282692922486
510,16.01715390813137
1284,0.0
1310,0.0
1312,0.0
1314,0.0
1316,0.0
1330,0.0
1332,0.0
1334,2221.448240472918
2,5, 1, 5, 0,15, 0.00,60.00,Thursday
507,16.824407886603964
508,16.78274397600284
509,16.594725718103227
510,16.629834244102124
1284,0.0
1310,0.0
1312,0.0
1314,0.0
1316,1891.3731194821278
1330,4873.329596554944
1332,4776.707244047761
1334,2268.6543039569665
2,5, 1, 5, 0,16, 0.00,60.00,Thursday
507,17.514886121370786
508,17.334299569168195
509,17.364354799310743
510,17.788127324153805
1284,0.0
1310,0.0
1312,0.0
1314,0.0
1316,12.207328563213581
1330,4875.850498714925
1332,4748.952806262765
1334,4.758585477490927
2,5, 1, 5, 0,17, 0.00,60.00,Thursday
507,18.346593784252725
508,17.719529335341903
509,18.033845189744795
510,16.402260170228626
1284,0.0
1310,0.0
1312,0.0
1314,0.0
1316,0.0
1330,0.0
1332,0.0
1334,2258.9460929533993
2,5, 1, 5, 0,18, 0.00,60.00,Thursday
507,18.06589834442562
508,16.030938729147113
509,15.447257819339537
510,17.464854293189717
1284,0.0
1310,0.0
1312,0.0
1314,0.0
1316,0.0
1330,4535.00439381301
1332,4807.761732266716
1334,75.39266300095689
2,5, 1, 5, 0,19, 0.00,60.00,Thursday
507,17.853447445305633
508,16.756969055784477
509,17.98443990736809
510,17.9775840715833
1284,0.0
1310,0.0
1312,0.0
1314,0.0
1316,0.0
1330,408.64972046338
1332,0.0
1334,0.0
2,5, 1, 5, 0,20, 0.00,60.00,Thursday
507,17.354245589511084
508,17.17731629409515
509,17.890054065375807
510,17.714299162435495
1284,0.0
1310,0.0
1312,0.0
1314,0.0
1316,0.0
1330,0.0
1332,0.0
1334,0.0
2,5, 1, 5, 0,21, 0.00,60.00,Thursday
507,16.64837081769939
508,16.840241100671193
509,17.31370586222319
510,17.166620973889135
1284,0.0
1310,0.0
1312,0.0
1314,0.0
1316,0.0
1330,0.0
1332,0.0
1334,0.0
2,5, 1, 5, 0,22, 0.00,60.00,Thursday
507,16.145111818317403
508,16.49017473830004
509,16.823901746314075
510,16.72574349283141
1284,0.0
1310,0.0
1312,0.0
1314,0.0
1316,0.0
1330,0.0
1332,0.0
1334,0.0
2,5, 1, 5, 0,23, 0.00,60.00,Thursday
507,15.920292651729374
508,16.31325257038695
509,16.541526313063795
510,16.471452959408172
1284,0.0
1310,0.0
1312,0.0
1314,0.0
1316,0.0
1330,0.0
1332,0.0
1334,0.0
2,5, 1, 5, 0,24, 0.00,60.00,Thursday