Program Version,EnergyPlus, Version 9.6.0-f420c06a69, YMD=2021.12.22 10:08
1,5,Environment Title[],Latitude[deg],Longitude[deg],Time Zone[],Elevation[m]
2,8,Day of Simulation[],Month[],Day of Month[],DST Indicator[1=yes 0=no],Hour[],StartMinute[],EndMinute[],DayType
3,5,Cumulative Day of Simulation[],Month[],Day of Month[],DST Indicator[1=yes 0=no],DayType  ! When Daily Report Variables Requested
4,2,Cumulative Days of Simulation[],Month[]  ! When Monthly Report Variables Requested
5,1,Cumulative Days of Simulation[] ! When Run Period Report Variables Requested
6,1,Calendar Year of Simulation[] ! When Annual Report Variables Requested
507,1,BLOCK1:ZONE2,Zone Thermostat Operative Temperature [C] !Hourly
508,1,BLOCK1:ZONE1,Zone Thermostat Operative Temperature [C] !Hourly
509,1,BLOCK2:ZONE2,Zone Thermostat Operative Temperature [C] !Hourly
510,1,BLOCK2:ZONE1,Zone Thermostat Operative Temperature [C] !Hourly
1284,1,BLOCK1:ZONE2 VRF INDOOR UNIT DX COOLING COIL,Cooling Coil Total Cooling Rate [W] !Hourly
1310,1,BLOCK1:ZONE1 VRF INDOOR UNIT DX COOLING COIL,Cooling Coil Total Cooling Rate [W] !Hourly
1312,1,BLOCK2:ZONE2 VRF INDOOR UNIT DX COOLING COIL,Cooling Coil Total Cooling Rate [W] !Hourly
1314,1,BLOCK2:ZONE1 VRF INDOOR UNIT DX COOLING COIL,Cooling Coil Total Cooling Rate [W] !Hourly
1316,1,BLOCK1:ZONE2 VRF INDOOR UNIT DX HEATING COIL,Heating Coil Heating Rate [W] !Hourly
1330,1,BLOCK1:ZONE1 VRF INDOOR UNIT DX HEATING COIL,Heating Coil Heating Rate [W] !Hourly
1332,1,BLOCK2:ZONE2 VRF INDOOR UNIT DX HEATING COIL,Heating Coil Heating Rate [W] !Hourly
1334,1,BLOCK2:ZONE1 VRF INDOOR UNIT DX HEATING COIL,Heating Coil Heating Rate [W] !Hourly
End of Data Dictionary
1,UNTITLED (O1-O1:31-12),  36.18, 140.42,   9.00,  35.00
2,1, 1, 1, 0, 1, 0.00,60.00,Sunday
507,14.74951846587885
508,14.73469366032582
509,14.738527303792523
510,14.729861090243835
1284,0.0
1310,0.0
1312,0.0
1314,0.0
1316,369.5864917092855
1330,557.600217559085
1332,617.1157985441914
1334,260.59756316873825
2,1, 1, 1, 0, 2, 0.00,60.00,Sunday
507,14.742374460089575
508,14.73108458610892
509,14.736292490809705
510,14.730043177563193
1284,0.0
1310,0.0
1312,0.0
1314,0.0
1316,376.8879197970655
1330,582.9453955193164
1332,640.9664629508198
1334,275.010735657688
2,1, 1, 1, 0, 3, 0.00,60.00,Sunday
507,14.734020348314539
508,14.723100063184965
509,14.730248008662059
510,14.724567862458365
1284,0.0
1310,0.0
1312,0.0
1314,0.0
1316,409.51042576353086
1330,654.7715754178239
1332,687.327688384649
1334,301.1914205178522
2,1, 1, 1, 0, 4, 0.00,60.00,Sunday
507,14.73592237485602
508,14.72624015564383
509,14.734910144305685
510,14.729581309559878
1284,0.0
1310,0.0
1312,0.0
1314,0.0
1316,433.1584330453652
1330,704.5604495287389
1332,711.7424527331045
1334,317.0978433673034
2,1, 1, 1, 0, 5, 0.00,60.00,Sunday
507,14.736834213139351
508,14.72846108737448
509,14.735173951631635
510,14.730976219318446
1284,0.0
1310,0.0
1312,0.0
1314,0.0
1316,454.53405758392375
1330,751.5773797729153
1332,739.9465898657016
1334,333.39294644665415
2,1, 1, 1, 0, 6, 0.00,60.00,Sunday
507,14.737307784689596
508,14.729773495731706
509,14.734285198265207
510,14.730825448232634
1284,0.0
1310,0.0
1312,0.0
1314,0.0
1316,476.5583009231233
1330,798.9299684017059
1332,773.358014558497
1334,351.92018320975694
2,1, 1, 1, 0, 7, 0.00,60.00,Sunday
507,14.749331669621085
508,14.751130393017114
509,14.746220722207207
510,14.74701110465049
1284,0.0
1310,0.0
1312,0.0
1314,0.0
1316,489.31967226008254
1330,809.1716305392642
1332,777.2748019387618
1334,352.33022631203494
2,1, 1, 1, 0, 8, 0.00,60.00,Sunday
507,14.810125678628834
508,14.846034199355303
509,14.805404329980313
510,14.823494048792295
1284,0.0
1310,0.0
1312,0.0
1314,0.0
1316,400.16049260404634
1330,571.0741188874941
1332,611.2923677078732
1334,253.04776593505943
2,1, 1, 1, 0, 9, 0.00,60.00,Sunday
507,14.856824114239728
508,14.964794537553505
509,14.857317082280188
510,14.928864145043015
1284,0.0
1310,0.0
1312,0.0
1314,0.0
1316,177.02133613608717
1330,38.5371782216908
1332,232.19746073662904
1334,24.037668547193874
2,1, 1, 1, 0,10, 0.00,60.00,Sunday
507,14.871847940794993
508,15.223691973707849
509,14.904866584136805
510,15.207323767970152
1284,0.0
1310,0.0
1312,0.0
1314,0.0
1316,42.83110599808386
1330,0.0
1332,16.170068720712994
1334,0.0
2,1, 1, 1, 0,11, 0.00,60.00,Sunday
507,14.884741714327884
508,15.385924885677104
509,15.00713934957146
510,15.475029478081115
1284,0.0
1310,0.0
1312,0.0
1314,0.0
1316,0.0
1330,0.0
1332,0.0
1334,0.0
2,1, 1, 1, 0,12, 0.00,60.00,Sunday
507,15.035657507916465
508,15.581135511491063
509,15.208680322545886
510,15.76405677237068
1284,0.0
1310,0.0
1312,0.0
1314,0.0
1316,0.0
1330,0.0
1332,0.0
1334,0.0
2,1, 1, 1, 0,13, 0.00,60.00,Sunday
507,15.193956747490478
508,15.785662231246906
509,15.42784120927898
510,16.046686082074253
1284,0.0
1310,0.0
1312,0.0
1314,0.0
1316,0.0
1330,0.0
1332,0.0
1334,0.0
2,1, 1, 1, 0,14, 0.00,60.00,Sunday
507,15.260896023291014
508,15.915701201880264
509,15.578693344810997
510,16.23282261065196
1284,0.0
1310,0.0
1312,0.0
1314,0.0
1316,0.0
1330,0.0
1332,0.0
1334,0.0
2,1, 1, 1, 0,15, 0.00,60.00,Sunday
507,15.190440274693081
508,15.838262691643408
509,15.594480372231658
510,16.191439579529174
1284,0.0
1310,0.0
1312,0.0
1314,0.0
1316,0.0
1330,0.0
1332,0.0
1334,0.0
2,1, 1, 1, 0,16, 0.00,60.00,Sunday
507,14.931803275011791
508,15.559349068267636
509,15.419098129559739
510,15.937953112357745
1284,0.0
1310,0.0
1312,0.0
1314,0.0
1316,5.270236357754158
1330,0.0
1332,0.0
1334,0.0
2,1, 1, 1, 0,17, 0.00,60.00,Sunday
507,14.733389829297002
508,15.202847838461842
509,15.111994045380747
510,15.587914494772624
1284,0.0
1310,0.0
1312,0.0
1314,0.0
1316,107.19261463594509
1330,0.0
1332,0.0
1334,0.0
2,1, 1, 1, 0,18, 0.00,60.00,Sunday
507,14.681960156636745
508,14.891947963036177
509,14.82737343606032
510,15.238424857715927
1284,0.0
1310,0.0
1312,0.0
1314,0.0
1316,169.95931211078013
1330,62.684290693114065
1332,48.042909445430624
1334,0.0
2,1, 1, 1, 0,19, 0.00,60.00,Sunday
507,14.686715830374062
508,14.760851250804327
509,14.716507278030658
510,14.93567915207614
1284,0.0
1310,0.0
1312,0.0
1314,0.0
1316,197.8516579323347
1330,176.33165464999195
1332,182.5158479941123
1334,6.146174441610783
2,1, 1, 1, 0,20, 0.00,60.00,Sunday
507,14.694140145603058
508,14.706057199032562
509,14.680539614660658
510,14.7558190284902
1284,0.0
1310,0.0
1312,0.0
1314,0.0
1316,244.96295953449336
1330,288.49105904914836
1332,303.28354262292316
1334,70.62549894533362
2,1, 1, 1, 0,21, 0.00,60.00,Sunday
507,14.705726083239178
508,14.687752071757357
509,14.679440908305427
510,14.692773740561803
1284,0.0
1310,0.0
1312,0.0
1314,0.0
1316,291.40886440923015
1330,375.50282504432107
1332,405.73395858803406
1334,133.13146424497617
2,1, 1, 1, 0,22, 0.00,60.00,Sunday
507,14.714749168836327
508,14.687930032914402
509,14.689389985516591
510,14.679889921195908
1284,0.0
1310,0.0
1312,0.0
1314,0.0
1316,332.52816317081033
1330,460.03383070811583
1332,493.6694153891217
1334,182.741736415441
2,1, 1, 1, 0,23, 0.00,60.00,Sunday
507,14.7160295094091
508,14.689472414598523
509,14.696223896425913
510,14.682084117178132
1284,0.0
1310,0.0
1312,0.0
1314,0.0
1316,390.8513326687199
1330,579.812036845925
1332,582.3479009741095
1334,233.073196558829
2,1, 1, 1, 0,24, 0.00,60.00,Sunday
507,14.727247891374029
508,14.705541717315151
509,14.711961173659581
510,14.69989586507404
1284,0.0
1310,0.0
1312,0.0
1314,0.0
1316,416.9499185234308
1330,638.6669067223569
1332,634.7972073040457
1334,264.4677757182268
2,2, 1, 2, 0, 1, 0.00,60.00,Monday
507,14.728656663302385
508,14.710844033044387
509,14.716847758086633
510,14.70759293300376
1284,0.0
1310,0.0
1312,0.0
1314,0.0
1316,450.94061577524633
1330,713.0400056727176
1332,692.7334927233882
1334,296.93599249948613
2,2, 1, 2, 0, 2, 0.00,60.00,Monday
507,14.733441243805892
508,14.719112654333289
509,14.724664833128438
510,14.71756988320303
1284,0.0
1310,0.0
1312,0.0
1314,0.0
1316,473.0356258086793
1330,761.3627678091195
1332,734.543434921937
1334,321.21955710925965
2,2, 1, 2, 0, 3, 0.00,60.00,Monday
507,14.739247201737193
508,14.728560451166297
509,14.734455985905212
510,14.729132326160938
1284,0.0
1310,0.0
1312,0.0
1314,0.0
1316,479.8824732554148
1330,784.9136252385397
1332,751.7724868004605
1334,332.760773832977
2,2, 1, 2, 0, 4, 0.00,60.00,Monday
507,14.73890186572564
508,14.729731964145317
509,14.734620822991815
510,14.730060588447323
1284,0.0
1310,0.0
1312,0.0
1314,0.0
1316,494.11898983041885
1330,818.6328165827268
1332,781.6355632632176
1334,350.43526691429025
2,2, 1, 2, 0, 5, 0.00,60.00,Monday
507,14.741547717099266
508,14.73435328622411
509,14.739304918920425
510,14.735540025982083
1284,0.0
1310,0.0
1312,0.0
1314,0.0
1316,500.87395220484575
1330,839.8615608438456
1332,796.5356676100062
1334,360.38651737476283
2,2, 1, 2, 0, 6, 0.00,60.00,Monday
507,14.73899602779732
508,14.732228069090604
509,14.73654514548441
510,14.7330731926012
1284,0.0
1310,0.0
1312,0.0
1314,0.0
1316,520.8624181444937
1330,884.554401562018
1332,827.2084582377386
1334,377.89242925532244
2,2, 1, 2, 0, 7, 0.00,60.00,Monday
507,14.742978079748687
508,14.737953714276525
509,14.740438356104704
510,14.737936455461593
1284,0.0
1310,0.0
1312,0.0
1314,0.0
1316,537.148020066815
1330,918.158410989691
1332,845.8819964702957
1334,388.94851929055994
2,2, 1, 2, 0, 8, 0.00,60.00,Monday
507,14.825784280599802
508,14.886844922940872
509,14.87258669144624
510,14.822515407101232
1284,0.0
1310,0.0
1312,0.0
1314,0.0
1316,155.32463053464488
1330,14.946579266653336
1332,0.0
1334,35.30486366229627
2,2, 1, 2, 0, 9, 0.00,60.00,Monday
507,15.035856267456625
508,15.55251175262407
509,15.375140731833843
510,15.298655152797858
1284,0.0
1310,0.0
1312,0.0
1314,0.0
1316,0.0
1330,0.0
1332,0.0
1334,0.0
2,2, 1, 2, 0,10, 0.00,60.00,Monday
507,16.052325605706116
508,17.500436010278037
509,16.580577147386464
510,17.04131044424092
1284,0.0
1310,0.0
1312,0.0
1314,0.0
1316,0.0
1330,0.0
1332,0.0
1334,0.0
2,2, 1, 2, 0,11, 0.00,60.00,Monday
507,16.900249838104237
508,16.118244096561874
509,17.65972474282341
510,18.95044577545555
1284,0.0
1310,0.0
1312,0.0
1314,0.0
1316,0.0
1330,3817.087283500341
1332,0.0
1334,0.0
2,2, 1, 2, 0,12, 0.00,60.00,Monday
507,17.376205925997397
508,18.085763499113767
509,18.40246443654838
510,15.623151802958152
1284,0.0
1310,0.0
1312,0.0
1314,0.0
1316,0.0
1330,132.51828820635745
1332,0.0
1334,1708.102082208587
2,2, 1, 2, 0,13, 0.00,60.00,Monday
507,17.94038228793201
508,15.67577312476927
509,15.989280110110482
510,16.998105610618413
1284,0.0
1310,0.0
1312,0.0
1314,0.0
1316,0.0
1330,3984.200811146571
1332,3746.8012499137653
1334,1789.0494860735616
2,2, 1, 2, 0,14, 0.00,60.00,Monday
507,18.53216711097059
508,17.165665741767278
509,17.84631710598501
510,19.23124213379099
1284,0.0
1310,0.0
1312,0.0
1314,0.0
1316,0.0
1330,3066.819699733129
1332,169.8698808265697
1334,0.0
2,2, 1, 2, 0,15, 0.00,60.00,Monday
507,15.793399449221004
508,18.71969089653153
509,15.21719235454175
510,16.265360556294326
1284,0.0
1310,0.0
1312,0.0
1314,0.0
1316,1455.8258850100408
1330,57.08958146898173
1332,3904.875085449791
1334,1826.0766712109446
2,2, 1, 2, 0,16, 0.00,60.00,Monday
507,16.563037576842834
508,14.695845137780543
509,18.71481055130733
510,16.07144966085666
1284,0.0
1310,0.0
1312,0.0
1314,0.0
1316,71.70240036817756
1330,3792.2873248014635
1332,0.0
1334,1670.6629349331981
2,2, 1, 2, 0,17, 0.00,60.00,Monday
507,17.38185362432415
508,18.289869170580793
509,14.223498948347563
510,17.452372919669987
1284,0.0
1310,0.0
1312,0.0
1314,0.0
1316,0.0
1330,0.0
1332,3630.9197981764482
1334,57.77052130182846
2,2, 1, 2, 0,18, 0.00,60.00,Monday
507,17.13301153416441
508,18.411369991711716
509,17.38828933398866
510,18.24746719605581
1284,0.0
1310,0.0
1312,0.0
1314,0.0
1316,0.0
1330,0.0
1332,0.0
1334,0.0
2,2, 1, 2, 0,19, 0.00,60.00,Monday
507,16.88962294707392
508,18.257867909491218
509,17.73250248314302
510,18.263271782448648
1284,0.0
1310,0.0
1312,0.0
1314,0.0
1316,0.0
1330,0.0
1332,0.0
1334,0.0
2,2, 1, 2, 0,20, 0.00,60.00,Monday
507,16.275700566270054
508,17.646740032037894
509,17.40293476979642
510,17.86115232679812
1284,0.0
1310,0.0
1312,0.0
1314,0.0
1316,0.0
1330,0.0
1332,0.0
1334,0.0
2,2, 1, 2, 0,21, 0.00,60.00,Monday
507,15.396196770049285
508,16.690053190688104
509,16.62322134851221
510,17.131079438966296
1284,0.0
1310,0.0
1312,0.0
1314,0.0
1316,0.0
1330,0.0
1332,0.0
1334,0.0
2,2, 1, 2, 0,22, 0.00,60.00,Monday
507,14.884016053375126
508,16.004930076220486
509,16.041071658677005
510,16.593847866924023
1284,0.0
1310,0.0
1312,0.0
1314,0.0
1316,19.246038319743946
1330,0.0
1332,0.0
1334,0.0
2,2, 1, 2, 0,23, 0.00,60.00,Monday
507,14.718968300748015
508,15.551680723899107
509,15.6144102651533
510,16.17880492642304
1284,0.0
1310,0.0
1312,0.0
1314,0.0
1316,102.56252388221121
1330,0.0
1332,0.0
1334,0.0
2,2, 1, 2, 0,24, 0.00,60.00,Monday
507,14.69208767727972
508,15.248146008882772
509,15.288291191243765
510,15.846188980608057
1284,0.0
1310,0.0
1312,0.0
1314,0.0
1316,155.35638214786218
1330,0.0
1332,0.0
1334,0.0
2,3, 1, 3, 0, 1, 0.00,60.00,Tuesday
507,14.681322990791891
508,14.954661881493372
509,14.973643050590024
510,15.513944258674531
1284,0.0
1310,0.0
1312,0.0
1314,0.0
1316,210.68066409159803
1330,3.6324504289754165
1332,6.4807663979585755
1334,0.0
2,3, 1, 3, 0, 2, 0.00,60.00,Tuesday
507,14.68614031271469
508,14.77514911932607
509,14.782059049786664
510,15.223978234065184
1284,0.0
1310,0.0
1312,0.0
1314,0.0
1316,213.57732725435193
1330,89.67913122358686
1332,105.36541843096919
1334,0.0
2,3, 1, 3, 0, 3, 0.00,60.00,Tuesday
507,14.682013174029494
508,14.707114202824275
509,14.703398234190768
510,14.948087775498694
1284,0.0
1310,0.0
1312,0.0
1314,0.0
1316,246.7545870608805
1330,221.5710618718526
1332,226.58661228825855
1334,2.214020404172088
2,3, 1, 3, 0, 4, 0.00,60.00,Tuesday
507,14.691537486426006
508,14.692305365567087
509,14.686839437175657
510,14.769100299237689
1284,0.0
1310,0.0
1312,0.0
1314,0.0
1316,270.11096787411475
1330,300.57397287462936
1332,312.7382166702233
1334,50.53230800291733
2,3, 1, 3, 0, 5, 0.00,60.00,Tuesday
507,14.702435649201005
508,14.687285557729085
509,14.686953657821055
510,14.699732191831558
1284,0.0
1310,0.0
1312,0.0
1314,0.0
1316,296.6086404630416
1330,356.9011987005089
1332,388.50051636110675
1334,103.36457663184439
2,3, 1, 3, 0, 6, 0.00,60.00,Tuesday
507,14.695627415001987
508,14.666075620097901
509,14.679681709744594
510,14.663057378814031
1284,0.0
1310,0.0
1312,0.0
1314,0.0
1316,380.2909854834942
1330,502.921806955006
1332,506.3183910230555
1334,166.8854362288215
2,3, 1, 3, 0, 7, 0.00,60.00,Tuesday
507,14.723627346606413
508,14.697491987344632
509,14.709491050257768
510,14.689313171388939
1284,0.0
1310,0.0
1312,0.0
1314,0.0
1316,407.72252354290765
1330,538.6799773037284
1332,547.6364419261082
1334,192.2336288286843
2,3, 1, 3, 0, 8, 0.00,60.00,Tuesday
507,14.893879827274247
508,15.427151062392793
509,15.22431923651779
510,15.248753062417311
1284,0.0
1310,0.0
1312,0.0
1314,0.0
1316,30.37127029608348
1330,0.0
1332,0.0
1334,0.0
2,3, 1, 3, 0, 9, 0.00,60.00,Tuesday
507,15.789212092028578
508,17.289478224369407
509,16.38700858385104
510,16.795155026287105
1284,0.0
1310,0.0
1312,0.0
1314,0.0
1316,0.0
1330,0.0
1332,0.0
1334,0.0
2,3, 1, 3, 0,10, 0.00,60.00,Tuesday
507,17.04325061107909
508,16.028788790209806
509,17.803625295469566
510,18.79084239843244
1284,0.0
1310,0.0
1312,0.0
1314,0.0
1316,0.0
1330,3526.3283397439723
1332,0.0
1334,0.0
2,3, 1, 3, 0,11, 0.00,60.00,Tuesday
507,17.867154779751466
508,18.677680857206973
509,16.00994549889168
510,16.369258321183665
1284,0.0
1310,0.0
1312,0.0
1314,0.0
1316,0.0
1330,123.58312002082549
1332,3765.300900849725
1334,1787.3147218763615
2,3, 1, 3, 0,12, 0.00,60.00,Tuesday
507,18.192142710000397
508,16.63080498194854
509,17.80914988369011
510,17.69883537904541
1284,0.0
1310,0.0
1312,0.0
1314,0.0
1316,0.0
1330,2523.1322123951477
1332,130.3168176738809
1334,206.55269148515941
2,3, 1, 3, 0,13, 0.00,60.00,Tuesday
507,18.548297609626772
508,18.00876613446618
509,15.87700362144673
510,17.39126108239538
1284,0.0
1310,0.0
1312,0.0
1314,0.0
1316,0.0
1330,0.0
1332,3889.879442068404
1334,0.0
2,3, 1, 3, 0,14, 0.00,60.00,Tuesday
507,16.923691950363427
508,16.99453530299303
509,16.97666186518846
510,17.37997010126494
1284,0.0
1310,0.0
1312,0.0
1314,0.0
1316,1363.4054272864814
1330,0.0
1332,2251.059676709947
1334,0.0
2,3, 1, 3, 0,15, 0.00,60.00,Tuesday
507,18.008670097160604
508,16.813484047631057
509,18.778080360126303
510,17.144679743708828
1284,0.0
1310,0.0
1312,0.0
1314,0.0
1316,0.0
1330,929.0488181982591
1332,0.0
1334,85.79685371947824
2,3, 1, 3, 0,16, 0.00,60.00,Tuesday
507,16.887231164652334
508,19.092184784913762
509,16.424721160987254
510,16.843052057253516
1284,0.0
1310,0.0
1312,0.0
1314,0.0
1316,1556.340108015817
1330,63.8941840632455
1332,1955.8929560812537
1334,391.1346954993108
2,3, 1, 3, 0,17, 0.00,60.00,Tuesday
507,17.417942707037945
508,16.08830962792156
509,16.45396921582457
510,18.723658497659585
1284,0.0
1310,0.0
1312,0.0
1314,0.0
1316,20.55981516176955
1330,3937.8657022432913
1332,3672.108346773639
1334,3.874517722108014
2,3, 1, 3, 0,18, 0.00,60.00,Tuesday
507,17.710535114532142
508,15.643573163280898
509,17.63789826719436
510,15.313591151095524
1284,0.0
1310,0.0
1312,0.0
1314,0.0
1316,0.0
1330,3290.6022609301426
1332,125.41389272249812
1334,1783.132474330259
2,3, 1, 3, 0,19, 0.00,60.00,Tuesday
507,17.509389325638097
508,16.546481473440984
509,18.484373113466276
510,18.20839783063705
1284,0.0
1310,0.0
1312,0.0
1314,0.0
1316,0.0
1330,319.5607443585888
1332,0.0
1334,0.0
2,3, 1, 3, 0,20, 0.00,60.00,Tuesday
507,16.844342645283035
508,17.08818263673693
509,18.09355399906094
510,18.112420775009536
1284,0.0
1310,0.0
1312,0.0
1314,0.0
1316,0.0
1330,0.0
1332,0.0
1334,0.0
2,3, 1, 3, 0,21, 0.00,60.00,Tuesday
507,15.949051154604607
508,16.61467783398167
509,17.291087250981306
510,17.529483870346855
1284,0.0
1310,0.0
1312,0.0
1314,0.0
1316,0.0
1330,0.0
1332,0.0
1334,0.0
2,3, 1, 3, 0,22, 0.00,60.00,Tuesday
507,15.368065619232805
508,16.185591523998205
509,16.661236827407798
510,17.040502324738004
1284,0.0
1310,0.0
1312,0.0
1314,0.0
1316,0.0
1330,0.0
1332,0.0
1334,0.0
2,3, 1, 3, 0,23, 0.00,60.00,Tuesday
507,15.010495289897037
508,15.886411941365271
509,16.21883630718488
510,16.679252910344957
1284,0.0
1310,0.0
1312,0.0
1314,0.0
1316,0.0
1330,0.0
1332,0.0
1334,0.0
2,3, 1, 3, 0,24, 0.00,60.00,Tuesday
507,14.8236930051856
508,15.685813743076146
509,15.91349967868006
510,16.399193993569135
1284,0.0
1310,0.0
1312,0.0
1314,0.0
1316,16.14538324960473
1330,0.0
1332,0.0
1334,0.0
2,4, 1, 4, 0, 1, 0.00,60.00,Wednesday
507,14.717764014616273
508,15.423942028151538
509,15.588164104395542
510,16.08835354594025
1284,0.0
1310,0.0
1312,0.0
1314,0.0
1316,104.86615685986988
1330,0.0
1332,0.0
1334,0.0
2,4, 1, 4, 0, 2, 0.00,60.00,Wednesday
507,14.700619766005426
508,15.171665507494229
509,15.300947965837352
510,15.802518078633955
1284,0.0
1310,0.0
1312,0.0
1314,0.0
1316,144.9155161596167
1330,0.0
1332,0.0
1334,0.0
2,4, 1, 4, 0, 3, 0.00,60.00,Wednesday
507,14.692330542383043
508,14.925847137514024
509,15.01678024227298
510,15.516555214029154
1284,0.0
1310,0.0
1312,0.0
1314,0.0
1316,192.05740498622222
1330,1.3597857710852403
1332,0.0
1334,0.0
2,4, 1, 4, 0, 4, 0.00,60.00,Wednesday
507,14.688682668799458
508,14.759870617226413
509,14.792245837372887
510,15.22126413230242
1284,0.0
1310,0.0
1312,0.0
1314,0.0
1316,224.8861982066453
1330,122.01950651580282
1332,93.1592128949218
1334,0.0
2,4, 1, 4, 0, 5, 0.00,60.00,Wednesday
507,14.68587696640317
508,14.708141184063113
509,14.705447221360476
510,14.943543396392943
1284,0.0
1310,0.0
1312,0.0
1314,0.0
1316,245.17737377529636
1330,229.73044874404417
1332,220.1401586813521
1334,0.5503808901746753
2,4, 1, 4, 0, 6, 0.00,60.00,Wednesday
507,14.691588903969794
508,14.696539052944539
509,14.684617914355915
510,14.766809197640622
1284,0.0
1310,0.0
1312,0.0
1314,0.0
1316,264.4712010994741
1330,298.26473127083125
1332,301.6367424590934
1334,49.059982989303194
2,4, 1, 4, 0, 7, 0.00,60.00,Wednesday
507,14.70760555288101
508,14.708704518145067
509,14.692554240137358
510,14.711995790598337
1284,0.0
1310,0.0
1312,0.0
1314,0.0
1316,285.77687076536023
1330,332.7653530775606
1332,363.02595818969775
1334,95.03763657055036
2,4, 1, 4, 0, 8, 0.00,60.00,Wednesday
507,15.000224178826963
508,15.603061586764642
509,15.372990471808107
510,15.447879756318569
1284,0.0
1310,0.0
1312,0.0
1314,0.0
1316,0.0
1330,0.0
1332,0.0
1334,0.0
2,4, 1, 4, 0, 9, 0.00,60.00,Wednesday
507,16.098334426813523
508,17.665129549106616
509,16.706182790255827
510,17.171117492263477
1284,0.0
1310,0.0
1312,0.0
1314,0.0
1316,0.0
1330,0.0
1332,0.0
1334,0.0
2,4, 1, 4, 0,10, 0.00,60.00,Wednesday
507,17.33429920245679
508,16.50513797876648
509,18.079642342020527
510,16.074524154627245
1284,0.0
1310,0.0
1312,0.0
1314,0.0
1316,0.0
1330,3711.715061458091
1332,0.0
1334,1710.101288925432
2,4, 1, 4, 0,11, 0.00,60.00,Wednesday
507,18.159901652658107
508,18.731564950127687
509,15.982223683272842
510,18.93808728412938
1284,0.0
1310,0.0
1312,0.0
1314,0.0
1316,0.0
1330,96.10474909374219
1332,3637.4115322528446
1334,8.164414900882988
2,4, 1, 4, 0,12, 0.00,60.00,Wednesday
507,18.4077079064077
508,16.54360762602258
509,17.692596230733265
510,16.95707032341029
1284,0.0
1310,0.0
1312,0.0
1314,0.0
1316,0.0
1330,3604.5913806208805
1332,136.88289309839686
1334,1381.7534077393782
2,4, 1, 4, 0,13, 0.00,60.00,Wednesday
507,16.736174289950576
508,17.891786314879973
509,17.135485206297236
510,17.076667239012657
1284,0.0
1310,0.0
1312,0.0
1314,0.0
1316,1529.5868749570413
1330,0.0
1332,2094.9196157869364
1334,158.82988700209492
2,4, 1, 4, 0,14, 0.00,60.00,Wednesday
507,18.07886707124782
508,16.968905891220693
509,18.96211667247656
510,17.27973565722932
1284,0.0
1310,0.0
1312,0.0
1314,0.0
1316,0.1872891936440103
1330,694.8530583056413
1332,0.0
1334,17.817237166086127
2,4, 1, 4, 0,15, 0.00,60.00,Wednesday
507,15.65465085479396
508,16.664418642345325
509,16.25945582291804
510,16.926954081885928
1284,0.0
1310,0.0
1312,0.0
1314,0.0
1316,1570.0741174661287
1330,3948.1138811735964
1332,3886.200040293293
1334,984.6949333426627
2,4, 1, 4, 0,16, 0.00,60.00,Wednesday
507,18.54227342485776
508,19.05147137056134
509,16.308685545580378
510,16.159913581286872
1284,0.0
1310,0.0
1312,0.0
1314,0.0
1316,0.0
1330,95.95961989098713
1332,3343.1185063819503
1334,1843.4415392761991
2,4, 1, 4, 0,17, 0.00,60.00,Wednesday
507,14.409761689177131
508,15.301632146677438
509,17.9514102405703
510,16.42821237266138
1284,0.0
1310,0.0
1312,0.0
1314,0.0
1316,1532.8218424160784
1330,3982.749168278863
1332,172.03391821278692
1334,1787.570522563937
2,4, 1, 4, 0,18, 0.00,60.00,Wednesday
507,17.137202255774945
508,18.758883017326454
509,14.621326654679628
510,17.808499634422503
1284,0.0
1310,0.0
1312,0.0
1314,0.0
1316,0.0
1330,0.0
1332,3891.488708691387
1334,60.912738797663785
2,4, 1, 4, 0,19, 0.00,60.00,Wednesday
507,16.980848922015653
508,13.2961765265764
509,17.660162881613843
510,18.402848547337598
1284,0.0
1310,0.0
1312,0.0
1314,0.0
1316,0.0
1330,2470.716495283747
1332,0.0
1334,0.0
2,4, 1, 4, 0,20, 0.00,60.00,Wednesday
507,16.26144042240507
508,16.058766909534025
509,17.502416767416072
510,18.038997470587915
1284,0.0
1310,0.0
1312,0.0
1314,0.0
1316,0.0
1330,0.0
1332,0.0
1334,0.0
2,4, 1, 4, 0,21, 0.00,60.00,Wednesday
507,15.510793862748272
508,15.965508681096322
509,16.854284014184195
510,17.435508036785272
1284,0.0
1310,0.0
1312,0.0
1314,0.0
1316,0.0
1330,0.0
1332,0.0
1334,0.0
2,4, 1, 4, 0,22, 0.00,60.00,Wednesday
507,15.064111507799852
508,15.79331265252172
509,16.31510746890266
510,16.948889868510186
1284,0.0
1310,0.0
1312,0.0
1314,0.0
1316,0.0
1330,0.0
1332,0.0
1334,0.0
2,4, 1, 4, 0,23, 0.00,60.00,Wednesday
507,14.832357981208093
508,15.659175860479808
509,15.960999208626589
510,16.616200360270547
1284,0.0
1310,0.0
1312,0.0
1314,0.0
1316,2.8048444229059575
1330,0.0
1332,0.0
1334,0.0
2,4, 1, 4, 0,24, 0.00,60.00,Wednesday
507,14.733137820861804
508,15.519299210735866
509,15.662790073532886
510,16.3233624706613
1284,0.0
1310,0.0
1312,0.0
1314,0.0
1316,51.581951549092125
1330,0.0
1332,0.0
1334,0.0
2,5, 1, 5, 0, 1, 0.00,60.00,Thursday
507,14.706458516580042
508,15.355208372846597
509,15.385346587246001
510,16.042313711623137
1284,0.0
1310,0.0
1312,0.0
1314,0.0
1316,98.95457906832084
1330,0.0
1332,0.0
1334,0.0
2,5, 1, 5, 0, 2, 0.00,60.00,Thursday
507,14.701499325549609
508,15.183787952887798
509,15.132397930386846
510,15.77849631937561
1284,0.0
1310,0.0
1312,0.0
1314,0.0
1316,135.37686167365905
1330,0.0
1332,0.0
1334,0.0
2,5, 1, 5, 0, 3, 0.00,60.00,Thursday
507,14.701888850452944
508,15.015365214766744
509,14.903694829743785
510,15.53303076729346
1284,0.0
1310,0.0
1312,0.0
1314,0.0
1316,157.21314375005306
1330,0.0
1332,0.7567488234425891
1334,0.0
2,5, 1, 5, 0, 4, 0.00,60.00,Thursday
507,14.698667780230817
508,14.849601053364161
509,14.757819903697452
510,15.295888414827033
1284,0.0
1310,0.0
1312,0.0
1314,0.0
1316,178.43587653732877
1330,4.74042584320343
1332,98.63308423364217
1334,0.0
2,5, 1, 5, 0, 5, 0.00,60.00,Thursday
507,14.698764896707571
508,14.749052221650679
509,14.708322361961947
510,15.07803732063829
1284,0.0
1310,0.0
1312,0.0
1314,0.0
1316,184.03557448737305
1330,79.10548798265177
1332,176.17605807393835
1334,0.0
2,5, 1, 5, 0, 6, 0.00,60.00,Thursday
507,14.704991373267912
508,14.717517616531604
509,14.694724397288166
510,14.87904807157241
1284,0.0
1310,0.0
1312,0.0
1314,0.0
1316,187.91087483724425
1330,129.93861564239268
1332,237.44018514856754
1334,2.2494382193537032
2,5, 1, 5, 0, 7, 0.00,60.00,Thursday
507,14.704664557030576
508,14.702106183877723
509,14.691492025600377
510,14.748900522447212
1284,0.0
1310,0.0
1312,0.0
1314,0.0
1316,218.49331055186136
1330,210.82596568838989
1332,306.4172791784615
1334,48.82890151772272
2,5, 1, 5, 0, 8, 0.00,60.00,Thursday
507,14.977793264181845
508,15.41111291155798
509,15.253803549486898
510,15.283279166561002
1284,0.0
1310,0.0
1312,0.0
1314,0.0
1316,0.0
1330,0.0
1332,0.0
1334,0.0
2,5, 1, 5, 0, 9, 0.00,60.00,Thursday
507,15.38486975281613
508,16.23153771730378
509,15.939612508983496
510,15.940813347228644
1284,0.0
1310,0.0
1312,0.0
1314,0.0
1316,0.0
1330,0.0
1332,0.0
1334,0.0
2,5, 1, 5, 0,10, 0.00,60.00,Thursday
507,15.98266692030013
508,16.997478171947286
509,16.681966050176968
510,16.627358352047118
1284,0.0
1310,0.0
1312,0.0
1314,0.0
1316,0.0
1330,0.0
1332,0.0
1334,0.0
2,5, 1, 5, 0,11, 0.00,60.00,Thursday
507,16.659398413313863
508,17.78371730669619
509,17.478416170092526
510,17.404978007530282
1284,0.0
1310,0.0
1312,0.0
1314,0.0
1316,0.0
1330,0.0
1332,0.0
1334,0.0
2,5, 1, 5, 0,12, 0.00,60.00,Thursday
507,17.218441404332598
508,18.36476766430141
509,18.141027306320126
510,18.009163098934263
1284,0.0
1310,0.0
1312,0.0
1314,0.0
1316,0.0
1330,0.0
1332,0.0
1334,0.0
2,5, 1, 5, 0,13, 0.00,60.00,Thursday
507,17.662649861468363
508,16.712520199883294
509,18.64673574613876
510,18.46621635220511
1284,0.0
1310,0.0
1312,0.0
1314,0.0
1316,0.0
1330,4126.61213456558
1332,0.0
1334,0.0
2,5, 1, 5, 0,14, 0.00,60.00,Thursday
507,18.09285524862286
508,17.95088297401589
509,16.018321211114102
510,16.815025232446914
1284,0.0
1310,0.0
1312,0.0
1314,0.0
1316,0.0
1330,12.661931534191584
1332,4034.978316762866
1334,1631.2018286405303
2,5, 1, 5, 0,15, 0.00,60.00,Thursday
507,18.56575806342437
508,16.18231834368709
509,16.80359269436728
510,18.421442994275957
1284,0.0
1310,0.0
1312,0.0
1314,0.0
1316,0.0
1330,2984.0140459287613
1332,3357.3837165837876
1334,0.0
2,5, 1, 5, 0,16, 0.00,60.00,Thursday
507,15.799833630523523
508,16.86104818168518
509,18.17237557661028
510,15.82104596807658
1284,0.0
1310,0.0
1312,0.0
1314,0.0
1316,1631.1451903293773
1330,3166.1216014102283
1332,0.0
1334,1956.6292580592376
2,5, 1, 5, 0,17, 0.00,60.00,Thursday
507,17.81003875222933
508,17.651494650770523
509,15.789074928280986
510,18.445538107628842
1284,0.0
1310,0.0
1312,0.0
1314,0.0
1316,0.0
1330,34.371883989159734
1332,4057.2387222875836
1334,0.0
2,5, 1, 5, 0,18, 0.00,60.00,Thursday
507,17.70524608098995
508,18.476427391457882
509,18.09241449844043
510,18.566359488072774
1284,0.0
1310,0.0
1312,0.0
1314,0.0
1316,0.0
1330,0.0
1332,0.0
1334,0.0
2,5, 1, 5, 0,19, 0.00,60.00,Thursday
507,17.55981804469498
508,18.529057320557666
509,18.438407605925292
510,18.517407841202225
1284,0.0
1310,0.0
1312,0.0
1314,0.0
1316,0.0
1330,0.0
1332,0.0
1334,0.0
2,5, 1, 5, 0,20, 0.00,60.00,Thursday
507,17.081938510899867
508,18.08696763946506
509,18.128094146420395
510,18.120700646488867
1284,0.0
1310,0.0
1312,0.0
1314,0.0
1316,0.0
1330,0.0
1332,0.0
1334,0.0
2,5, 1, 5, 0,21, 0.00,60.00,Thursday
507,16.356781190675317
508,17.344230908879425
509,17.437912916668953
510,17.472951695429664
1284,0.0
1310,0.0
1312,0.0
1314,0.0
1316,0.0
1330,0.0
1332,0.0
1334,0.0
2,5, 1, 5, 0,22, 0.00,60.00,Thursday
507,15.87411958963203
508,16.778340964272164
509,16.889355052976278
510,16.974378154011635
1284,0.0
1310,0.0
1312,0.0
1314,0.0
1316,0.0
1330,0.0
1332,0.0
1334,0.0
2,5, 1, 5, 0,23, 0.00,60.00,Thursday
507,15.665276934335918
508,16.50231981729152
509,16.582030257141746
510,16.69006795339733
1284,0.0
1310,0.0
1312,0.0
1314,0.0
1316,0.0
1330,0.0
1332,0.0
1334,0.0
2,5, 1, 5, 0,24, 0.00,60.00,Thursday
507,15.516431256413146
508,16.308215116582517
509,16.337005907934767
510,16.457158088984016
1284,0.0
1310,0.0
1312,0.0
1314,0.0
1316,0.0
1330,0.0
1332,0.0
1334,0.0
2,6, 1, 6, 0, 1, 0.00,60.00,Friday
507,15.34144403838388
508,16.106557018294517
509,16.093929691305675
510,16.2211889953143
1284,0.0
1310,0.0
1312,0.0
1314,0.0
1316,0.0
1330,0.0
1332,0.0
1334,0.0
2,6, 1, 6, 0, 2, 0.00,60.00,Friday
507,15.161405643613795
508,15.908762958639556
509,15.86140433423082
510,15.991502143118502
1284,0.0
1310,0.0
1312,0.0
1314,0.0
1316,0.0
1330,0.0
1332,0.0
1334,0.0
2,6, 1, 6, 0, 3, 0.00,60.00,Friday
507,15.000706589013186
508,15.734907648810015
509,15.652187442382216
510,15.78250648497697
1284,0.0
1310,0.0
1312,0.0
1314,0.0
1316,0.0
1330,0.0
1332,0.0
1334,0.0
2,6, 1, 6, 0, 4, 0.00,60.00,Friday
507,14.855682977183903
508,15.577695687733662
509,15.459717563192477
510,15.588946277161806
1284,0.0
1310,0.0
1312,0.0
1314,0.0
1316,0.0
1330,0.0
1332,0.0
1334,0.0