Program Version,EnergyPlus, Version 9.6.0-f420c06a69, YMD=2021.12.22 10:08
1,5,Environment Title[],Latitude[deg],Longitude[deg],Time Zone[],Elevation[m]
2,8,Day of Simulation[],Month[],Day of Month[],DST Indicator[1=yes 0=no],Hour[],StartMinute[],EndMinute[],DayType
3,5,Cumulative Day of Simulation[],Month[],Day of Month[],DST Indicator[1=yes 0=no],DayType  ! When Daily Report Variables Requested
4,2,Cumulative Days of Simulation[],Month[]  ! When Monthly Report Variables Requested
5,1,Cumulative Days of Simulation[] ! When Run Period Report Variables Requested
6,1,Calendar Year of Simulation[] ! When Annual Report Variables Requested
507,1,BLOCK1:ZONE2,Zone Thermostat Operative Temperature [C] !Hourly
508,1,BLOCK1:ZONE1,Zone Thermostat Operative Temperature [C] !Hourly
509,1,BLOCK2:ZONE2,Zone Thermostat Operative Temperature [C] !Hourly
510,1,BLOCK2:ZONE1,Zone Thermostat Operative Temperature [C] !Hourly
1284,1,BLOCK1:ZONE2 VRF INDOOR UNIT DX COOLING COIL,Cooling Coil Total Cooling Rate [W] !Hourly
1310,1,BLOCK1:ZONE1 VRF INDOOR UNIT DX COOLING COIL,Cooling Coil Total Cooling Rate [W] !Hourly
1312,1,BLOCK2:ZONE2 VRF INDOOR UNIT DX COOLING COIL,Cooling Coil Total Cooling Rate [W] !Hourly
1314,1,BLOCK2:ZONE1 VRF INDOOR UNIT DX COOLING COIL,Cooling Coil Total Cooling Rate [W] !Hourly
1316,1,BLOCK1:ZONE2 VRF INDOOR UNIT DX HEATING COIL,Heating Coil Heating Rate [W] !Hourly
1330,1,BLOCK1:ZONE1 VRF INDOOR UNIT DX HEATING COIL,Heating Coil Heating Rate [W] !Hourly
1332,1,BLOCK2:ZONE2 VRF INDOOR UNIT DX HEATING COIL,Heating Coil Heating Rate [W] !Hourly
1334,1,BLOCK2:ZONE1 VRF INDOOR UNIT DX HEATING COIL,Heating Coil Heating Rate [W] !Hourly
End of Data Dictionary
1,UNTITLED (O1-O1:31-12),  36.18, 140.42,   9.00,  35.00
2,1, 1, 1, 0, 1, 0.00,60.00,Sunday
507,16.74885268903774
508,16.732400817050404
509,16.73384138777444
510,16.724705814307235
1284,0.0
1310,0.0
1312,0.0
1314,0.0
1316,459.4276087305978
1330,741.986120419921
1332,729.980715793725
1334,320.5346420728706
2,1, 1, 1, 0, 2, 0.00,60.00,Sunday
507,16.743067088198522
508,16.730565589001117
509,16.734517058512484
510,16.727598573048194
1284,0.0
1310,0.0
1312,0.0
1314,0.0
1316,464.61814479687285
1330,762.6053110725206
1332,748.1507350828294
1334,332.0636862738734
2,1, 1, 1, 0, 3, 0.00,60.00,Sunday
507,16.732733748816877
508,16.721057203650687
509,16.727330272161257
510,16.72107847293936
1284,0.0
1310,0.0
1312,0.0
1314,0.0
1316,497.771033812619
1330,835.2907669591164
1332,793.0566998853633
1334,357.3350558516322
2,1, 1, 1, 0, 4, 0.00,60.00,Sunday
507,16.73400696479088
508,16.72372795065067
509,16.73228329027709
510,16.726295579591522
1284,0.0
1310,0.0
1312,0.0
1314,0.0
1316,520.8585312322839
1330,883.1102844475417
1332,813.8074041805239
1334,371.26731806117175
2,1, 1, 1, 0, 5, 0.00,60.00,Sunday
507,16.73461654343894
508,16.72564685498505
509,16.73254472481937
510,16.727770931813392
1284,0.0
1310,0.0
1312,0.0
1314,0.0
1316,541.8825202980951
1330,928.6191591998912
1332,839.4733060034274
1334,386.0792977398287
2,1, 1, 1, 0, 6, 0.00,60.00,Sunday
507,16.734883341775255
508,16.726700315771147
509,16.731145858476253
510,16.727229857565117
1284,0.0
1310,0.0
1312,0.0
1314,0.0
1316,563.7679665711496
1330,974.9485033615093
1332,871.3341483779209
1334,403.62736309071977
2,1, 1, 1, 0, 7, 0.00,60.00,Sunday
507,16.747982339722178
508,16.7496776696749
509,16.743888352295986
510,16.744607198806136
1284,0.0
1310,0.0
1312,0.0
1314,0.0
1316,576.3938113689551
1330,983.4587645775437
1332,873.6804796197198
1334,402.91195662891033
2,1, 1, 1, 0, 8, 0.00,60.00,Sunday
507,16.818439076336468
508,16.857436939907963
509,16.81296309419833
510,16.832871029414598
1284,0.0
1310,0.0
1312,0.0
1314,0.0
1316,482.60399967228454
1330,729.4949805327876
1332,700.7975161248742
1334,299.29539738135543
2,1, 1, 1, 0, 9, 0.00,60.00,Sunday
507,16.93517534202892
508,17.066490697394187
509,16.93476927339474
510,17.020071167331295
1284,0.0
1310,0.0
1312,0.0
1314,0.0
1316,248.07072792960042
1330,119.88520011639204
1332,298.98670912422045
1334,47.6040907897364
2,1, 1, 1, 0,10, 0.00,60.00,Sunday
507,16.93688774271167
508,17.194399895700425
509,16.963418988937594
510,17.228426350308848
1284,0.0
1310,0.0
1312,0.0
1314,0.0
1316,99.21633391263434
1330,0.0
1332,33.23232552773236
1334,0.0
2,1, 1, 1, 0,11, 0.00,60.00,Sunday
507,16.89083860280685
508,17.234268620041217
509,17.004270937204588
510,17.403766716920508
1284,0.0
1310,0.0
1312,0.0
1314,0.0
1316,24.99381514994036
1330,0.0
1332,0.0
1334,0.0
2,1, 1, 1, 0,12, 0.00,60.00,Sunday
507,16.908239324749673
508,17.34495203145741
509,17.139987449301067
510,17.615970172338432
1284,0.0
1310,0.0
1312,0.0
1314,0.0
1316,0.0
1330,0.0
1332,0.0
1334,0.0
2,1, 1, 1, 0,13, 0.00,60.00,Sunday
507,16.96660682446045
508,17.487261368674563
509,17.292719838430557
510,17.836953844634362
1284,0.0
1310,0.0
1312,0.0
1314,0.0
1316,0.0
1330,0.0
1332,0.0
1334,0.0
2,1, 1, 1, 0,14, 0.00,60.00,Sunday
507,16.970086708504873
508,17.572821979400008
509,17.390254136870613
510,17.978568294332604
1284,0.0
1310,0.0
1312,0.0
1314,0.0
1316,0.0
1330,0.0
1332,0.0
1334,0.0
2,1, 1, 1, 0,15, 0.00,60.00,Sunday
507,16.86327163477032
508,17.473964925679077
509,17.37000084508241
510,17.914777797047456
1284,0.0
1310,0.0
1312,0.0
1314,0.0
1316,0.0
1330,0.0
1332,0.0
1334,0.0
2,1, 1, 1, 0,16, 0.00,60.00,Sunday
507,16.705193928796504
508,17.194172977310345
509,17.178422586784293
510,17.6583662095155
1284,0.0
1310,0.0
1312,0.0
1314,0.0
1316,86.21737622103632
1330,0.0
1332,0.0
1334,0.0
2,1, 1, 1, 0,17, 0.00,60.00,Sunday
507,16.627461257652318
508,16.886704448463476
509,16.891721090061317
510,17.314576429731552
1284,0.0
1310,0.0
1312,0.0
1314,0.0
1316,193.2878097026869
1330,81.48913307577403
1332,49.35958654676261
1334,0.0
2,1, 1, 1, 0,18, 0.00,60.00,Sunday
507,16.62485275175527
508,16.73875350620472
509,16.721217203321824
510,16.982151767793088
1284,0.0
1310,0.0
1312,0.0
1314,0.0
1316,258.769795365078
1330,265.2227536145992
1332,204.992587948991
1334,11.72360607185867
2,1, 1, 1, 0,19, 0.00,60.00,Sunday
507,16.661230833160097
508,16.69160084429314
509,16.668523025045847
510,16.783420427255436
1284,0.0
1310,0.0
1312,0.0
1314,0.0
1316,292.9585749535768
1330,347.40996700826383
1332,324.4529943851272
1334,78.16048872777436
2,1, 1, 1, 0,20, 0.00,60.00,Sunday
507,16.683148013277034
508,16.671595511909082
509,16.65622616610559
510,16.693753486932305
1284,0.0
1310,0.0
1312,0.0
1314,0.0
1316,340.29387119371006
1330,454.4126990024517
1332,441.4337852268894
1334,146.07230219253336
2,1, 1, 1, 0,21, 0.00,60.00,Sunday
507,16.699095275192107
508,16.67196867011367
509,16.663752351065938
510,16.66502976112791
1284,0.0
1310,0.0
1312,0.0
1314,0.0
1316,385.9645295188361
1330,556.7604253527386
1332,539.1861968631409
1334,203.09594411715415
2,1, 1, 1, 0,22, 0.00,60.00,Sunday
507,16.70953786672046
508,16.680333778100646
509,16.676614676326025
510,16.665410943953816
1284,0.0
1310,0.0
1312,0.0
1314,0.0
1316,426.5611453712496
1330,647.820230966968
1332,621.8661126915567
1334,251.7262946476759
2,1, 1, 1, 0,23, 0.00,60.00,Sunday
507,16.710992338984823
508,16.683260897334044
509,16.684802298693718
510,16.671262250317113
1284,0.0
1310,0.0
1312,0.0
1314,0.0
1316,485.3418046293031
1330,771.2444292281082
1332,705.483618174939
1334,298.9713669488324
2,1, 1, 1, 0,24, 0.00,60.00,Sunday
507,16.722945082715043
508,16.699719096418406
509,16.702428216171036
510,16.690629617851187
1284,0.0
1310,0.0
1312,0.0
1314,0.0
1316,510.24289425474365
1330,828.670297744045
1332,752.9465641661196
1334,327.29960530514904
2,2, 1, 2, 0, 1, 0.00,60.00,Monday
507,16.72488271768373
508,16.705254530044883
509,16.70883562202992
510,16.699263265987867
1284,0.0
1310,0.0
1312,0.0
1314,0.0
1316,543.7729853291444
1330,902.401106567934
1332,807.0043523024189
1334,357.65162261065063
2,2, 1, 2, 0, 2, 0.00,60.00,Monday
507,16.730024512495525
508,16.713851966249322
509,16.717846463436647
510,16.71014830868934
1284,0.0
1310,0.0
1312,0.0
1314,0.0
1316,565.2497863538305
1330,949.1000573375783
1332,845.9490996569391
1334,380.3216633991766
2,2, 1, 2, 0, 3, 0.00,60.00,Monday
507,16.73719465129843
508,16.72500641646639
509,16.730258050614555
510,16.724271796446207
1284,0.0
1310,0.0
1312,0.0
1314,0.0
1316,570.2576528963885
1330,968.3080433468947
1332,858.2665387764275
1334,389.2239284598976
2,2, 1, 2, 0, 4, 0.00,60.00,Monday
507,16.737077589756318
508,16.72666109259891
509,16.73126233840366
510,16.72606897249965
1284,0.0
1310,0.0
1312,0.0
1314,0.0
1316,583.7002617348164
1330,999.6099823378252
1332,885.5069912550771
1334,405.4512040939102
2,2, 1, 2, 0, 5, 0.00,60.00,Monday
507,16.74025806704327
508,16.732156197125484
509,16.737095702965497
510,16.73276961504533
1284,0.0
1310,0.0
1312,0.0
1314,0.0
1316,589.0516223596742
1330,1017.2711391562768
1332,896.8693433842889
1334,413.4531254920648
2,2, 1, 2, 0, 6, 0.00,60.00,Monday
507,16.73736210090071
508,16.72988326477072
509,16.734200541260883
510,16.730233402285258
1284,0.0
1310,0.0
1312,0.0
1314,0.0
1316,608.6834116265666
1330,1060.4138640216825
1332,925.5411140884564
1334,429.81374357547486
2,2, 1, 2, 0, 7, 0.00,60.00,Monday
507,16.74136699108262
508,16.73574409220925
509,16.738148216275654
510,16.735269376214923
1284,0.0
1310,0.0
1312,0.0
1314,0.0
1316,624.6974752916894
1330,1092.6702084684637
1332,942.3397262168317
1334,439.6690954389803
2,2, 1, 2, 0, 8, 0.00,60.00,Monday
507,16.836084212147007
508,16.85952816030844
509,16.85474210376448
510,16.828663270032024
1284,0.0
1310,0.0
1312,0.0
1314,0.0
1316,238.59955088589
1330,100.53466522757158
1332,45.12969292534189
1334,81.5863657555989
2,2, 1, 2, 0, 9, 0.00,60.00,Monday
507,16.994268966615333
508,17.336740832118835
509,17.23344130625311
510,17.1928193334399
1284,0.0
1310,0.0
1312,0.0
1314,0.0
1316,35.17747535381845
1330,0.0
1332,0.0
1334,0.0
2,2, 1, 2, 0,10, 0.00,60.00,Monday
507,17.731882184170793
508,18.982005905036694
509,18.22781190425254
510,18.65594118636692
1284,0.0
1310,0.0
1312,0.0
1314,0.0
1316,0.0
1330,0.0
1332,0.0
1334,0.0
2,2, 1, 2, 0,11, 0.00,60.00,Monday
507,18.464936331476302
508,16.09051484230997
509,15.751955911667705
510,16.04313477974342
1284,0.0
1310,0.0
1312,0.0
1314,0.0
1316,0.0
1330,5640.561105197106
1332,4995.869185414075
1334,2551.5471635016434
2,2, 1, 2, 0,12, 0.00,60.00,Monday
507,15.01862541178238
508,17.142651470801134
509,18.027820901886376
510,20.48904526307534
1284,0.0
1310,0.0
1312,0.0
1314,150.39954798667304
1316,2260.872429815032
1330,5365.34446229922
1332,355.6743329053363
1334,0.0
2,2, 1, 2, 0,13, 0.00,60.00,Monday
507,18.49023287426249
508,19.390002677187375
509,15.401022802578925
510,20.55598593931628
1284,0.0
1310,39.69811531459642
1312,0.0
1314,476.9093543804721
1316,0.0
1330,273.176177702633
1332,5776.692014373655
1334,0.0
2,2, 1, 2, 0,14, 0.00,60.00,Monday
507,15.850763081453202
508,20.550671204498386
509,17.093763741001275
510,20.550615312405718
1284,0.0
1310,774.5662112196869
1312,0.0
1314,628.612082734556
1316,2238.537027764841
1330,0.0
1332,5237.101599593282
1334,0.0
2,2, 1, 2, 0,15, 0.00,60.00,Monday
507,18.67746770961621
508,20.54173054328592
509,18.478943377365006
510,20.538424135064137
1284,0.0
1310,707.7269959638631
1312,0.0
1314,536.0169356939795
1316,0.0
1330,0.0
1332,135.1883552802837
1334,0.0
2,2, 1, 2, 0,16, 0.00,60.00,Monday
507,14.95233639456191
508,20.538703716827037
509,15.250333122929382
510,20.545978033336
1284,0.0
1310,156.45922196364987
1312,0.0
1314,332.8876257808862
1316,2300.878729736506
1330,0.0
1332,5448.230003979424
1334,0.0
2,2, 1, 2, 0,17, 0.00,60.00,Monday
507,17.58478047318759
508,20.51987113796947
509,18.725493067528014
510,20.52786763629441
1284,0.0
1310,38.978280489911796
1312,0.0
1314,194.0235531383169
1316,0.0
1330,0.0
1332,0.0
1334,0.0
2,2, 1, 2, 0,18, 0.00,60.00,Monday
507,17.663553474913925
508,15.303388087390543
509,14.95607634035429
510,16.503793053270023
1284,0.0
1310,0.0
1312,0.0
1314,0.0
1316,0.0
1330,5353.600787836762
1332,5525.433120277941
1334,2004.3113161041624
2,2, 1, 2, 0,19, 0.00,60.00,Monday
507,17.488201487546036
508,18.356697804552816
509,17.98123731127542
510,17.69830673014432
1284,0.0
1310,0.0
1312,0.0
1314,0.0
1316,0.0
1330,0.0
1332,0.0
1334,147.95468449839487
2,2, 1, 2, 0,20, 0.00,60.00,Monday
507,16.990392517320274
508,18.274935652163713
509,17.8662182525362
510,18.22177697972591
1284,0.0
1310,0.0
1312,0.0
1314,0.0
1316,35.4204315995336
1330,0.0
1332,0.0
1334,0.0
2,2, 1, 2, 0,21, 0.00,60.00,Monday
507,16.76786905628294
508,17.68733035728659
509,17.321613513547724
510,17.952467810585816
1284,0.0
1310,0.0
1312,0.0
1314,0.0
1316,220.82885591245463
1330,0.0
1332,0.0
1334,0.0
2,2, 1, 2, 0,22, 0.00,60.00,Monday
507,16.718093213500076
508,17.09819893044
509,16.86180413657135
510,17.58291781191986
1284,0.0
1310,0.0
1312,0.0
1314,0.0
1316,276.81175304166754
1330,0.0
1332,95.83564559357569
1334,0.0
2,2, 1, 2, 0,23, 0.00,60.00,Monday
507,16.70480598914455
508,16.78621334105676
509,16.7160809874103
510,17.255860868750243
1284,0.0
1310,0.0
1312,0.0
1314,0.0
1316,312.83101607181914
1330,188.0433367818634
1332,296.78211530929616
1334,0.0
2,2, 1, 2, 0,24, 0.00,60.00,Monday
507,16.69753405868118
508,16.702753980741434
509,16.67687252751496
510,16.980494863801802
1284,0.0
1310,0.0
1312,0.0
1314,0.0
1316,350.9729630969374
1330,305.2873393272119
1332,413.88449597219096
1334,4.123289027385019
2,3, 1, 3, 0, 1, 0.00,60.00,Tuesday
507,16.69513199798819
508,16.662388186842684
509,16.668373108832718
510,16.784988528540346
1284,0.0
1310,0.0
1312,0.0
1314,0.0
1316,406.2954988576557
1330,418.43278286101065
1332,517.1103430609878
1334,67.33543393439199
2,3, 1, 3, 0, 2, 0.00,60.00,Tuesday
507,16.712155444785594
508,16.658633821183365
509,16.688695646129233
510,16.708323108936668
1284,0.0
1310,0.0
1312,0.0
1314,0.0
1316,412.3150736315122
1330,441.76242492695906
1332,563.4347698573866
1334,115.70182107427576
2,3, 1, 3, 0, 3, 0.00,60.00,Tuesday
507,16.714230633084604
508,16.651491662859033
509,16.695504806729947
510,16.671290378460185
1284,0.0
1310,0.0
1312,0.0
1314,0.0
1316,444.27650340623427
1330,513.5260024529381
1332,622.1810884053996
1334,161.5552505728717
2,3, 1, 3, 0, 4, 0.00,60.00,Tuesday
507,16.722474757547108
508,16.66267605192545
509,16.707445498674115
510,16.66799070517171
1284,0.0
1310,0.0
1312,0.0
1314,0.0
1316,461.4685307815755
1330,569.7437649158312
1332,660.8921192598358
1334,197.05349975678556
2,3, 1, 3, 0, 5, 0.00,60.00,Tuesday
507,16.726395309071517
508,16.675540759858688
509,16.712423142077746
510,16.67374364112007
1284,0.0
1310,0.0
1312,0.0
1314,0.0
1316,478.3088226267173
1330,624.0317626940653
1332,703.9262859048265
1334,231.93695831523797
2,3, 1, 3, 0, 6, 0.00,60.00,Tuesday
507,16.712209004739478
508,16.66768655181809
509,16.69986877885568
510,16.66587985610251
1284,0.0
1310,0.0
1312,0.0
1314,0.0
1316,557.2779871103312
1330,787.6372538963171
1332,796.0599448129104
1334,287.2841414252724
2,3, 1, 3, 0, 7, 0.00,60.00,Tuesday
507,16.736078178097713
508,16.708860264023244
509,16.72483989357002
510,16.700796968147536
1284,0.0
1310,0.0
1312,0.0
1314,0.0
1316,574.7862144653764
1330,823.2724078489325
1332,810.7628621412964
1334,302.8151520546595
2,3, 1, 3, 0, 8, 0.00,60.00,Tuesday
507,16.892766060708936
508,17.145228699624756
509,16.997514465472136
510,17.023223053857535
1284,0.0
1310,0.0
1312,0.0
1314,0.0
1316,135.04444546628713
1330,0.0
1332,0.0
1334,0.0
2,3, 1, 3, 0, 9, 0.00,60.00,Tuesday
507,17.403402554675075
508,18.6121485172347
509,17.86711295760616
510,18.25144104709097
1284,0.0
1310,0.0
1312,0.0
1314,0.0
1316,0.0
1330,0.0
1332,0.0
1334,0.0
2,3, 1, 3, 0,10, 0.00,60.00,Tuesday
507,18.41766620024941
508,15.584174568192502
509,15.56836092108838
510,15.434495311986929
1284,0.0
1310,0.0
1312,0.0
1314,0.0
1316,0.0
1330,4870.15161668565
1332,4647.060001517888
1334,2260.3309561233064
2,3, 1, 3, 0,11, 0.00,60.00,Tuesday
507,15.185132100574958
508,17.989138357237277
509,18.102370335503927
510,20.42723199693073
1284,0.0
1310,0.0
1312,0.0
1314,139.39443322182896
1316,2258.2302307065142
1330,5306.498904495057
1332,378.26700549601867
1334,0.0
2,3, 1, 3, 0,12, 0.00,60.00,Tuesday
507,18.440808407853957
508,17.78875173910661
509,16.10781715753838
510,20.553490383069956
1284,0.0
1310,0.0
1312,0.0
1314,559.0472049237717
1316,0.0
1330,5508.441287849727
1332,5574.584208016182
1334,0.0
2,3, 1, 3, 0,13, 0.00,60.00,Tuesday
507,15.970339711729597
508,20.104579975326757
509,17.33188783101257
510,20.551760036144533
1284,0.0
1310,457.2139621337491
1312,0.0
1314,848.4867715964219
1316,2245.1620086201533
1330,81.56381284114873
1332,5302.451805555797
1334,0.0
2,3, 1, 3, 0,14, 0.00,60.00,Tuesday
507,19.020255765125953
508,20.566059574489987
509,18.704961933509374
510,20.558878271779594
1284,0.0
1310,1628.0536737111647
1312,0.0
1314,1033.5849379624174
1316,0.0
1330,0.0
1332,17.754444996503818
1334,0.0
2,3, 1, 3, 0,15, 0.00,60.00,Tuesday
507,16.634829978399683
508,20.544654114440792
509,17.338887969095854
510,20.542714304095714
1284,0.0
1310,1524.1317756621852
1312,0.0
1314,989.5171067834071
1316,2145.6442035672667
1330,0.0
1332,5326.471351866219
1334,0.0
2,3, 1, 3, 0,16, 0.00,60.00,Tuesday
507,17.07683476650425
508,20.543004932924653
509,20.239909792643456
510,20.54186941271736
1284,0.0
1310,1024.4581758097963
1312,189.63591830567236
1314,726.6570877650435
1316,2181.6092664765797
1330,0.0
1332,0.0
1334,0.0
2,3, 1, 3, 0,17, 0.00,60.00,Tuesday
507,17.677708804030942
508,20.529563139290186
509,20.541222872437466
510,20.524973626551727
1284,0.0
1310,530.8107378867453
1312,286.4242030981123
1314,468.67674429147735
1316,46.24908985299388
1330,0.0
1332,0.0
1334,0.0
2,3, 1, 3, 0,18, 0.00,60.00,Tuesday
507,18.300431072516357
508,20.49709163195177
509,20.526713172300035
510,20.466980669930372
1284,0.0
1310,261.27550927561174
1312,87.6677657407005
1314,307.298546626768
1316,0.0
1330,0.0
1332,0.0
1334,0.0
2,3, 1, 3, 0,19, 0.00,60.00,Tuesday
507,18.351834099002453
508,20.511218441585438
509,16.490881764105794
510,20.48434871819498
1284,0.0
1310,119.15722117607866
1312,0.0
1314,214.2795680054098
1316,0.0
1330,0.0
1332,3899.4740388646296
1334,0.0
2,3, 1, 3, 0,20, 0.00,60.00,Tuesday
507,17.43512095101526
508,15.583942396403032
509,17.22062163616838
510,20.18773484739122
1284,0.0
1310,0.0
1312,0.0
1314,0.3737523460376251
1316,0.0
1330,3006.659771744541
1332,510.02648345510585
1334,0.0
2,3, 1, 3, 0,21, 0.00,60.00,Tuesday
507,16.75045049177188
508,16.519765751229038
509,17.40855076141011
510,13.94629049608117
1284,0.0
1310,0.0
1312,0.0
1314,0.0
1316,97.95152738770349
1330,998.3733864601481
1332,0.0
1334,1627.5053176073418
2,3, 1, 3, 0,22, 0.00,60.00,Tuesday
507,16.717696097409707
508,16.83864249863812
509,17.06014252566373
510,17.044533740979784
1284,0.0
1310,0.0
1312,0.0
1314,0.0
1316,225.99676378513624
1330,0.0
1332,0.0
1334,16.158784869025094
2,3, 1, 3, 0,23, 0.00,60.00,Tuesday
507,16.690985192262847
508,16.78727816197066
509,16.822276706106003
510,17.145229365003708
1284,0.0
1310,0.0
1312,0.0
1314,0.0
1316,225.0808155506447
1330,0.0
1332,22.590307104757706
1334,0.0
2,3, 1, 3, 0,24, 0.00,60.00,Tuesday
507,16.678327749459125
508,16.717729200684296
509,16.712791092165
510,17.092565102119217
1284,0.0
1310,0.0
1312,0.0
1314,0.0
1316,256.7358555731495
1330,81.06234941822106
1332,163.10010197744253
1334,0.0
2,4, 1, 4, 0, 1, 0.00,60.00,Wednesday
507,16.666370864157276
508,16.67146946648004
509,16.66052859990441
510,16.93197926218796
1284,0.0
1310,0.0
1312,0.0
1314,0.0
1316,317.33489795465755
1330,248.32209411295557
1332,293.08281364705084
1334,0.0
2,4, 1, 4, 0, 2, 0.00,60.00,Wednesday
507,16.6824698696266
508,16.667394407699348
509,16.659584830493813
510,16.783184451335117
1284,0.0
1310,0.0
1312,0.0
1314,0.0
1316,340.47743549022226
1330,328.3947651842477
1332,369.1687551317051
1334,26.05964328549208
2,4, 1, 4, 0, 3, 0.00,60.00,Wednesday
507,16.690651341757647
508,16.659944201535442
509,16.660110571358302
510,16.698738747680355
1284,0.0
1310,0.0
1312,0.0
1314,0.0
1316,382.113086105129
1330,416.50135026740475
1332,457.068304240365
1334,86.88500152097384
2,4, 1, 4, 0, 4, 0.00,60.00,Wednesday
507,16.699158362328433
508,16.656668979554745
509,16.6679798358835
510,16.66059662166512
1284,0.0
1310,0.0
1312,0.0
1314,0.0
1316,416.5239940657975
1330,482.7235421528676
1332,542.8911505306082
1334,138.55903794999972
2,4, 1, 4, 0, 5, 0.00,60.00,Wednesday
507,16.709000723340587
508,16.659016053729804
509,16.683527373232486
510,16.651908110593226
1284,0.0
1310,0.0
1312,0.0
1314,0.0
1316,440.97914747045775
1330,527.4057028434537
1332,606.1337387439448
1334,173.8386918464308
2,4, 1, 4, 0, 6, 0.00,60.00,Wednesday
507,16.719496907915783
508,16.66712499392276
509,16.700978727729158
510,16.66202632552988
1284,0.0
1310,0.0
1312,0.0
1314,0.0
1316,457.17156899748835
1330,563.4683412553202
1332,644.591055802907
1334,204.68053371181333
2,4, 1, 4, 0, 7, 0.00,60.00,Wednesday
507,16.733064766040574
508,16.69321749630045
509,16.717453304841058
510,16.685794981336166
1284,0.0
1310,0.0
1312,0.0
1314,0.0
1316,471.5371437132541
1330,592.5222533443978
1332,672.7475595832445
1334,227.29334136088426
2,4, 1, 4, 0, 8, 0.00,60.00,Wednesday
507,16.88573793401485
508,17.225816124864515
509,17.061359372449992
510,17.095687881648725
1284,0.0
1310,0.0
1312,0.0
1314,0.0
1316,70.72872324149296
1330,0.0
1332,0.0
1334,0.0
2,4, 1, 4, 0, 9, 0.00,60.00,Wednesday
507,17.496266220437764
508,18.77727784451253
509,17.991467922368724
510,18.38827849122398
1284,0.0
1310,0.0
1312,0.0
1314,0.0
1316,0.0
1330,0.0
1332,0.0
1334,0.0
2,4, 1, 4, 0,10, 0.00,60.00,Wednesday
507,18.612551217026365
508,16.00992281422866
509,16.230130132252597
510,15.780569050124793
1284,0.0
1310,0.0
1312,0.0
1314,0.0
1316,0.0
1330,5239.79372459395
1332,5164.866714591155
1334,2422.550509506842
2,4, 1, 4, 0,11, 0.00,60.00,Wednesday
507,15.289688415850833
508,20.49799971025722
509,18.59149748601281
510,20.48907517420721
1284,0.0
1310,474.3967810135549
1312,0.0
1314,221.9106271970918
1316,2223.7825588463306
1330,0.0
1332,336.97111150002536
1334,0.0
2,4, 1, 4, 0,12, 0.00,60.00,Wednesday
507,18.564862634227897
508,20.556100300366115
509,15.912910869839425
510,20.565161453071582
1284,0.0
1310,1197.3763112434976
1312,0.0
1314,648.1002090720597
1316,0.0
1330,0.0
1332,5386.159869912357
1334,0.0
2,4, 1, 4, 0,13, 0.00,60.00,Wednesday
507,16.318651984304125
508,20.55155557654391
509,17.735714334308433
510,20.55190650658527
1284,0.0
1310,1493.722024750387
1312,0.0
1314,916.0952173052256
1316,2219.907354718481
1330,0.0
1332,5280.80590648542
1334,0.0
2,4, 1, 4, 0,14, 0.00,60.00,Wednesday
507,17.005574774747323
508,20.555395590864634
509,19.265324033802674
510,20.55483215077535
1284,0.0
1310,1735.8271396693685
1312,105.19396606401305
1314,1054.4377534542673
1316,2126.8733170733863
1330,0.0
1332,0.0
1334,0.0
2,4, 1, 4, 0,15, 0.00,60.00,Wednesday
507,18.514061651020864
508,20.545555919693324
509,20.54709342777344
510,20.54346845119916
1284,0.0
1310,1739.7179996555765
1312,684.8847334952818
1314,1020.4495839726387
1316,47.583786189120005
1330,0.0
1332,0.0
1334,0.0
2,4, 1, 4, 0,16, 0.00,60.00,Wednesday
507,15.627114466558073
508,20.544869919325592
509,20.54904986510575
510,20.545282534360144
1284,0.0
1310,1075.3692701360833
1312,674.375677713691
1314,753.410307879914
1316,2307.445688229445
1330,0.0
1332,0.0
1334,0.0
2,4, 1, 4, 0,17, 0.00,60.00,Wednesday
507,18.26913447991599
508,20.51108750869734
509,20.52636612507359
510,20.50182431363059
1284,0.0
1310,636.8679966129096
1312,505.27952329585514
1314,493.89385889211553
1316,0.0
1330,0.0
1332,0.0
1334,0.0
2,4, 1, 4, 0,18, 0.00,60.00,Wednesday
507,18.617599452215817
508,20.474426984277727
509,20.489580150654888
510,20.434613669817587
1284,0.0
1310,380.44594063189083
1312,288.87894853629905
1314,334.5439063445361
1316,0.0
1330,0.0
1332,0.0
1334,0.0
2,4, 1, 4, 0,19, 0.00,60.00,Wednesday
507,18.524920945018962
508,20.442586677395415
509,20.464106219304714
510,20.38050557377813
1284,0.0
1310,145.97744745433698
1312,95.03111526310681
1314,213.702827199476
1316,0.0
1330,0.0
1332,0.0
1334,0.0
2,4, 1, 4, 0,20, 0.00,60.00,Wednesday
507,17.63174419111136
508,15.524112264703824
509,15.53743066330402
510,19.86979422399523
1284,0.0
1310,0.0
1312,0.0
1314,1.769639696220225
1316,0.0
1330,3009.5617293051596
1332,2948.208989558345
1334,0.0
2,4, 1, 4, 0,21, 0.00,60.00,Wednesday
507,16.757481256374717
508,16.493924330856423
509,16.591476693836572
510,13.763457532138148
1284,0.0
1310,0.0
1312,0.0
1314,0.0
1316,87.55909063768132
1330,1000.6124929955583
1332,722.5972987639793
1334,1655.3486729879273
2,4, 1, 4, 0,22, 0.00,60.00,Wednesday
507,16.723630797668505
508,16.950856488616196
509,16.86506815503259
510,17.012803428012504
1284,0.0
1310,0.0
1312,0.0
1314,0.0
1316,189.84965974447113
1330,0.0
1332,0.0
1334,19.15939266396549
2,4, 1, 4, 0,23, 0.00,60.00,Wednesday
507,16.68961901959292
508,16.96174249069957
509,16.759398510994288
510,17.107805408873393
1284,0.0
1310,0.0
1312,0.0
1314,0.0
1316,201.92567651756332
1330,0.0
1332,34.02123598951168
1334,0.0
2,4, 1, 4, 0,24, 0.00,60.00,Wednesday
507,16.675356144497286
508,16.869006939167164
509,16.694487560421948
510,17.068426830617923
1284,0.0
1310,0.0
1312,0.0
1314,0.0
1316,225.01451351926136
1330,0.0
1332,150.03812557664725
1334,0.0
2,5, 1, 5, 0, 1, 0.00,60.00,Thursday
507,16.672816603008844
508,16.7573530021415
509,16.6685167163327
510,16.951203044358433
1284,0.0
1310,0.0
1312,0.0
1314,0.0
1316,254.95351202686527
1330,55.895160119574115
1332,240.31353595161866
1334,0.0
2,5, 1, 5, 0, 2, 0.00,60.00,Thursday
507,16.67925428079598
508,16.702278554678184
509,16.666022252332084
510,16.81006178134686
1284,0.0
1310,0.0
1312,0.0
1314,0.0
1316,285.50330024216555
1330,160.91315021897597
1332,314.28491388063253
1334,11.58602274234096
2,5, 1, 5, 0, 3, 0.00,60.00,Thursday
507,16.691906555638354
508,16.683313575629036
509,16.67432521132114
510,16.72669765354742
1284,0.0
1310,0.0
1312,0.0
1314,0.0
1316,307.7253548154248
1330,235.36613076796482
1332,366.8319653105507
1334,57.413317259550595
2,5, 1, 5, 0, 4, 0.00,60.00,Thursday
507,16.701447466138614
508,16.675258878898376
509,16.682990932780026
510,16.687683008760832
1284,0.0
1310,0.0
1312,0.0
1314,0.0
1316,334.0509082169499
1330,294.71235794234786
1332,422.47711405208304
1334,97.75344095354504
2,5, 1, 5, 0, 5, 0.00,60.00,Thursday
507,16.713579048490864
508,16.677572264252603
509,16.697343581757295
510,16.677352593706974
1284,0.0
1310,0.0
1312,0.0
1314,0.0
1316,341.6345534305659
1330,330.4283150858425
1332,458.23309618027963
1334,122.93116197653794
2,5, 1, 5, 0, 6, 0.00,60.00,Thursday
507,16.72266910304453
508,16.68082240744755
509,16.706263332329357
510,16.674942835468503
1284,0.0
1310,0.0
1312,0.0
1314,0.0
1316,342.99105707308576
1330,339.8804331107291
1332,493.9832948464198
1334,144.42219694792377
2,5, 1, 5, 0, 7, 0.00,60.00,Thursday
507,16.721178876818357
508,16.67766188750073
509,16.707477626868997
510,16.675582153587513
1284,0.0
1310,0.0
1312,0.0
1314,0.0
1316,371.73135511723945
1330,405.21034232937853
1332,545.3581379251705
1334,177.42462134859085
2,5, 1, 5, 0, 8, 0.00,60.00,Thursday
507,16.787057109671025
508,17.133600322492903
509,17.01312757263885
510,16.970634557652705
1284,0.0
1310,0.0
1312,0.0
1314,0.0
1316,46.330301224573205
1330,0.0
1332,0.0
1334,0.0
2,5, 1, 5, 0, 9, 0.00,60.00,Thursday
507,16.897688252960926
508,17.687932397081177
509,17.458470363887372
510,17.38830321034518
1284,0.0
1310,0.0
1312,0.0
1314,0.0
1316,0.0
1330,0.0
1332,0.0
1334,0.0
2,5, 1, 5, 0,10, 0.00,60.00,Thursday
507,17.32811291039034
508,18.362047583724337
509,18.085830985051608
510,17.97674754810801
1284,0.0
1310,0.0
1312,0.0
1314,0.0
1316,0.0
1330,0.0
1332,0.0
1334,0.0
2,5, 1, 5, 0,11, 0.00,60.00,Thursday
507,17.95726595358113
508,16.202006068189537
509,18.81337824554401
510,18.689643761488448
1284,0.0
1310,0.0
1312,0.0
1314,0.0
1316,0.0
1330,5547.913686889368
1332,0.0
1334,0.0
2,5, 1, 5, 0,12, 0.00,60.00,Thursday
507,18.596888959713723
508,17.992117008574045
509,15.73083697791303
510,15.65801141921402
1284,0.0
1310,0.0
1312,0.0
1314,0.0
1316,0.0
1330,382.0399546316485
1332,5755.209465862433
1334,2727.3182250488935
2,5, 1, 5, 0,13, 0.00,60.00,Thursday
507,16.031094594512705
508,17.345831547884522
509,18.888476593832422
510,18.729955210093486
1284,0.0
1310,0.0
1312,0.0
1314,0.0
1316,2379.5952404795516
1330,5681.990664941941
1332,0.0
1334,0.0
2,5, 1, 5, 0,14, 0.00,60.00,Thursday
507,18.49901624309053
508,18.76102060039439
509,16.389823739072007
510,16.375596982648126
1284,0.0
1310,0.0
1312,0.0
1314,0.0
1316,0.0
1330,184.18025039887732
1332,5606.013738623491
1334,2693.498887843626
2,5, 1, 5, 0,15, 0.00,60.00,Thursday
507,16.508199194090224
508,17.34869695869813
509,17.476377461172298
510,17.206185984627325
1284,0.0
1310,0.0
1312,0.0
1314,0.0
1316,2372.321798720927
1330,5828.8030318793635
1332,5600.630289362565
1334,2708.441101226256
2,5, 1, 5, 0,16, 0.00,60.00,Thursday
507,17.092294923812926
508,17.097551438714632
509,19.065570298264525
510,18.840255789728765
1284,0.0
1310,0.0
1312,0.0
1314,0.0
1316,2310.9862280609673
1330,6003.14569445243
1332,113.53226450224827
1334,69.53834043910427
2,5, 1, 5, 0,17, 0.00,60.00,Thursday
507,17.992919646404005
508,17.16797599787698
509,16.98538789652334
510,16.296080881522133
1284,0.0
1310,0.0
1312,0.0
1314,0.0
1316,70.13334825888496
1330,5690.814902085186
1332,5789.373779112414
1334,2838.0098987039746
2,5, 1, 5, 0,18, 0.00,60.00,Thursday
507,18.203747718932163
508,17.525381716599462
509,16.122375949573296
510,18.473276246685465
1284,0.0
1310,0.0
1312,0.0
1314,0.0
1316,0.0
1330,184.1734890805357
1332,5539.062285125374
1334,0.0
2,5, 1, 5, 0,19, 0.00,60.00,Thursday
507,17.95617501273646
508,15.963441250387767
509,17.44800541162932
510,15.969492526335259
1284,0.0
1310,0.0
1312,0.0
1314,0.0
1316,0.0
1330,5647.19434352677
1332,470.1730532960519
1334,2621.235980567684
2,5, 1, 5, 0,20, 0.00,60.00,Thursday
507,17.32621841450044
508,16.757223533092095
509,17.762762569429697
510,16.734441554103043
1284,0.0
1310,0.0
1312,0.0
1314,0.0
1316,0.0
1330,680.1799050573333
1332,0.0
1334,239.54107672278113
2,5, 1, 5, 0,21, 0.00,60.00,Thursday
507,16.936713900302255
508,16.959104950601024
509,17.432510530322453
510,16.880896632729204
1284,0.0
1310,0.0
1312,0.0
1314,0.0