Program Version,EnergyPlus, Version 9.6.0-f420c06a69, YMD=2022.04.22 11:27
1,5,Environment Title[],Latitude[deg],Longitude[deg],Time Zone[],Elevation[m]
2,8,Day of Simulation[],Month[],Day of Month[],DST Indicator[1=yes 0=no],Hour[],StartMinute[],EndMinute[],DayType
3,5,Cumulative Day of Simulation[],Month[],Day of Month[],DST Indicator[1=yes 0=no],DayType  ! When Daily Meters Requested
4,2,Cumulative Days of Simulation[],Month[]  ! When Monthly Meters Requested
5,1,Cumulative Days of Simulation[] ! When Run Period Meters Requested
6,1,Calendar Year of Simulation[] ! When Annual Meters Requested
29,1,Electricity:Facility [J] !Hourly
307,1,InteriorEquipment:Electricity [J] !Hourly
77,1,InteriorLights:Electricity [J] !Hourly
1476,1,Carbon Equivalent:Facility [kg] !Hourly
End of Data Dictionary
1,UNTITLED (O1-O1:31-12),  43.77, 142.38,   9.00, 122.00
2,1, 1, 1, 0, 1, 0.00,60.00,Sunday
29,5430124.246443375
77,83179.00800000002
307,83179.00800000002
1476,0.0
2,1, 1, 1, 0, 2, 0.00,60.00,Sunday
29,5747395.641129097
77,83179.00800000002
307,83179.00800000002
1476,0.0
2,1, 1, 1, 0, 3, 0.00,60.00,Sunday
29,6043860.225135133
77,83179.00800000002
307,83179.00800000002
1476,0.0
2,1, 1, 1, 0, 4, 0.00,60.00,Sunday
29,6297376.889614666
77,83179.00800000002
307,83179.00800000002
1476,0.0
2,1, 1, 1, 0, 5, 0.00,60.00,Sunday
29,6539358.352494809
77,83179.00800000002
307,83179.00800000002
1476,0.0
2,1, 1, 1, 0, 6, 0.00,60.00,Sunday
29,6755802.81971864
77,83179.00800000002
307,83179.00800000002
1476,0.0
2,1, 1, 1, 0, 7, 0.00,60.00,Sunday
29,6968263.93585618
77,83179.00800000002
307,83179.00800000002
1476,0.0
2,1, 1, 1, 0, 8, 0.00,60.00,Sunday
29,7133936.032727058
77,249537.024
307,249537.024
1476,0.0
2,1, 1, 1, 0, 9, 0.00,60.00,Sunday
29,5976983.625837931
77,249537.024
307,249537.024
1476,0.0
2,1, 1, 1, 0,10, 0.00,60.00,Sunday
29,5172803.678940856
77,249537.024
307,249537.024
1476,0.0
2,1, 1, 1, 0,11, 0.00,60.00,Sunday
29,4444727.074534869
77,249537.024
307,249537.024
1476,0.0
2,1, 1, 1, 0,12, 0.00,60.00,Sunday
29,3972612.2087777127
77,249537.024
307,249537.024
1476,0.0
2,1, 1, 1, 0,13, 0.00,60.00,Sunday
29,3637107.5128146936
77,249537.024
307,249537.024
1476,0.0
2,1, 1, 1, 0,14, 0.00,60.00,Sunday
29,3481217.2261729306
77,249537.024
307,249537.024
1476,0.0
2,1, 1, 1, 0,15, 0.00,60.00,Sunday
29,3486248.383050768
77,249537.024
307,249537.024
1476,0.0
2,1, 1, 1, 0,16, 0.00,60.00,Sunday
29,3817631.9063124526
77,249537.024
307,249537.024
1476,0.0
2,1, 1, 1, 0,17, 0.00,60.00,Sunday
29,4004695.7889641672
77,249537.024
307,249537.024
1476,0.0
2,1, 1, 1, 0,18, 0.00,60.00,Sunday
29,4178999.9474769314
77,249537.024
307,249537.024
1476,0.0
2,1, 1, 1, 0,19, 0.00,60.00,Sunday
29,4715565.848242816
77,415895.04000000004
307,415895.04000000004
1476,0.0
2,1, 1, 1, 0,20, 0.00,60.00,Sunday
29,5648628.151119612
77,831790.0800000001
307,831790.0800000001
1476,0.0
2,1, 1, 1, 0,21, 0.00,60.00,Sunday
29,5845963.51639547
77,831790.0800000001
307,831790.0800000001
1476,0.0
2,1, 1, 1, 0,22, 0.00,60.00,Sunday
29,6012760.820812401
77,831790.0800000001
307,831790.0800000001
1476,0.0
2,1, 1, 1, 0,23, 0.00,60.00,Sunday
29,6182258.287115119
77,831790.0800000001
307,831790.0800000001
1476,0.0
2,1, 1, 1, 0,24, 0.00,60.00,Sunday
29,5677124.652368467
77,415895.04000000004
307,415895.04000000004
1476,0.0
2,2, 1, 2, 0, 1, 0.00,60.00,Monday
29,5330170.8033026755
77,83179.00800000002
307,83179.00800000002
1476,0.0
2,2, 1, 2, 0, 2, 0.00,60.00,Monday
29,5557045.593417652
77,83179.00800000002
307,83179.00800000002
1476,0.0
2,2, 1, 2, 0, 3, 0.00,60.00,Monday
29,5746917.66340323
77,83179.00800000002
307,83179.00800000002
1476,0.0
2,2, 1, 2, 0, 4, 0.00,60.00,Monday
29,5906139.5931612365
77,83179.00800000002
307,83179.00800000002
1476,0.0
2,2, 1, 2, 0, 5, 0.00,60.00,Monday
29,6088873.107025533
77,83179.00800000002
307,83179.00800000002
1476,0.0
2,2, 1, 2, 0, 6, 0.00,60.00,Monday
29,6226990.979616245
77,83179.00800000002
307,83179.00800000002
1476,0.0
2,2, 1, 2, 0, 7, 0.00,60.00,Monday
29,6371632.09936095
77,83179.00800000002
307,83179.00800000002
1476,0.0
2,2, 1, 2, 0, 8, 0.00,60.00,Monday
29,6775325.009090826
77,249537.024
307,249537.024
1476,0.0
2,2, 1, 2, 0, 9, 0.00,60.00,Monday
29,6689704.556856531
77,249537.024
307,249537.024
1476,0.0
2,2, 1, 2, 0,10, 0.00,60.00,Monday
29,6425127.096092949
77,249537.024
307,249537.024
1476,0.0
2,2, 1, 2, 0,11, 0.00,60.00,Monday
29,6156526.546330253
77,249537.024
307,249537.024
1476,0.0
2,2, 1, 2, 0,12, 0.00,60.00,Monday
29,5932122.351935888
77,249537.024
307,249537.024
1476,0.0
2,2, 1, 2, 0,13, 0.00,60.00,Monday
29,5927875.777243851
77,249537.024
307,249537.024
1476,0.0
2,2, 1, 2, 0,14, 0.00,60.00,Monday
29,5842211.9575522235
77,249537.024
307,249537.024
1476,0.0
2,2, 1, 2, 0,15, 0.00,60.00,Monday
29,5863806.277101327
77,249537.024
307,249537.024
1476,0.0
2,2, 1, 2, 0,16, 0.00,60.00,Monday
29,5951738.059793303
77,249537.024
307,249537.024
1476,0.0
2,2, 1, 2, 0,17, 0.00,60.00,Monday
29,6023683.861422575
77,249537.024
307,249537.024
1476,0.0
2,2, 1, 2, 0,18, 0.00,60.00,Monday
29,6086204.400503553
77,249537.024
307,249537.024
1476,0.0
2,2, 1, 2, 0,19, 0.00,60.00,Monday
29,6414497.444862006
77,415895.04000000004
307,415895.04000000004
1476,0.0
2,2, 1, 2, 0,20, 0.00,60.00,Monday
29,7126092.536763652
77,831790.0800000001
307,831790.0800000001
1476,0.0
2,2, 1, 2, 0,21, 0.00,60.00,Monday
29,7106571.775452048
77,831790.0800000001
307,831790.0800000001
1476,0.0
2,2, 1, 2, 0,22, 0.00,60.00,Monday
29,7116156.23810154
77,831790.0800000001
307,831790.0800000001
1476,0.0
2,2, 1, 2, 0,23, 0.00,60.00,Monday
29,7160284.473603633
77,831790.0800000001
307,831790.0800000001
1476,0.0
2,2, 1, 2, 0,24, 0.00,60.00,Monday
29,6499164.0065193605
77,415895.04000000004
307,415895.04000000004
1476,0.0
2,3, 1, 3, 0, 1, 0.00,60.00,Tuesday
29,5973378.531657928
77,83179.00800000002
307,83179.00800000002
1476,0.0
2,3, 1, 3, 0, 2, 0.00,60.00,Tuesday
29,6046782.113913445
77,83179.00800000002
307,83179.00800000002
1476,0.0
2,3, 1, 3, 0, 3, 0.00,60.00,Tuesday
29,6138838.288676644
77,83179.00800000002
307,83179.00800000002
1476,0.0
2,3, 1, 3, 0, 4, 0.00,60.00,Tuesday
29,6217049.694679267
77,83179.00800000002
307,83179.00800000002
1476,0.0
2,3, 1, 3, 0, 5, 0.00,60.00,Tuesday
29,6258216.572467444
77,83179.00800000002
307,83179.00800000002
1476,0.0
2,3, 1, 3, 0, 6, 0.00,60.00,Tuesday
29,6298372.9724870715
77,83179.00800000002
307,83179.00800000002
1476,0.0
2,3, 1, 3, 0, 7, 0.00,60.00,Tuesday
29,6343772.196694754
77,83179.00800000002
307,83179.00800000002
1476,0.0
2,3, 1, 3, 0, 8, 0.00,60.00,Tuesday
29,6644120.748001557
77,249537.024
307,249537.024
1476,0.0
2,3, 1, 3, 0, 9, 0.00,60.00,Tuesday
29,6272829.824335572
77,249537.024
307,249537.024
1476,0.0
2,3, 1, 3, 0,10, 0.00,60.00,Tuesday
29,5878983.3489043005
77,249537.024
307,249537.024
1476,0.0
2,3, 1, 3, 0,11, 0.00,60.00,Tuesday
29,5493368.748525629
77,249537.024
307,249537.024
1476,0.0
2,3, 1, 3, 0,12, 0.00,60.00,Tuesday
29,5222857.685931469
77,249537.024
307,249537.024
1476,0.0
2,3, 1, 3, 0,13, 0.00,60.00,Tuesday
29,5084936.547464887
77,249537.024
307,249537.024
1476,0.0
2,3, 1, 3, 0,14, 0.00,60.00,Tuesday
29,5141902.426108605
77,249537.024
307,249537.024
1476,0.0
2,3, 1, 3, 0,15, 0.00,60.00,Tuesday
29,5261495.723891396
77,249537.024
307,249537.024
1476,0.0
2,3, 1, 3, 0,16, 0.00,60.00,Tuesday
29,5402174.856703838
77,249537.024
307,249537.024
1476,0.0
2,3, 1, 3, 0,17, 0.00,60.00,Tuesday
29,5523013.787104545
77,249537.024
307,249537.024
1476,0.0
2,3, 1, 3, 0,18, 0.00,60.00,Tuesday
29,5633622.277455479
77,249537.024
307,249537.024
1476,0.0
2,3, 1, 3, 0,19, 0.00,60.00,Tuesday
29,6025131.870594058
77,415895.04000000004
307,415895.04000000004
1476,0.0
2,3, 1, 3, 0,20, 0.00,60.00,Tuesday
29,6722911.554755287
77,831790.0800000001
307,831790.0800000001
1476,0.0
2,3, 1, 3, 0,21, 0.00,60.00,Tuesday
29,6808660.520692294
77,831790.0800000001
307,831790.0800000001
1476,0.0
2,3, 1, 3, 0,22, 0.00,60.00,Tuesday
29,6872786.281459032
77,831790.0800000001
307,831790.0800000001
1476,0.0
2,3, 1, 3, 0,23, 0.00,60.00,Tuesday
29,6938936.068496972
77,831790.0800000001
307,831790.0800000001
1476,0.0
2,3, 1, 3, 0,24, 0.00,60.00,Tuesday
29,6299614.282259718
77,415895.04000000004
307,415895.04000000004
1476,0.0
2,4, 1, 4, 0, 1, 0.00,60.00,Wednesday
29,5821969.403157343
77,83179.00800000002
307,83179.00800000002
1476,0.0
2,4, 1, 4, 0, 2, 0.00,60.00,Wednesday
29,5904035.74536878
77,83179.00800000002
307,83179.00800000002
1476,0.0
2,4, 1, 4, 0, 3, 0.00,60.00,Wednesday
29,5991782.842311865
77,83179.00800000002
307,83179.00800000002
1476,0.0
2,4, 1, 4, 0, 4, 0.00,60.00,Wednesday
29,6100784.716734281
77,83179.00800000002
307,83179.00800000002
1476,0.0
2,4, 1, 4, 0, 5, 0.00,60.00,Wednesday
29,6147852.663056448
77,83179.00800000002
307,83179.00800000002
1476,0.0
2,4, 1, 4, 0, 6, 0.00,60.00,Wednesday
29,6178935.019831948
77,83179.00800000002
307,83179.00800000002
1476,0.0
2,4, 1, 4, 0, 7, 0.00,60.00,Wednesday
29,6193341.876975423
77,83179.00800000002
307,83179.00800000002
1476,0.0
2,4, 1, 4, 0, 8, 0.00,60.00,Wednesday
29,6472330.914047305
77,249537.024
307,249537.024
1476,0.0
2,4, 1, 4, 0, 9, 0.00,60.00,Wednesday
29,6190848.637829509
77,249537.024
307,249537.024
1476,0.0
2,4, 1, 4, 0,10, 0.00,60.00,Wednesday
29,5789997.878906986
77,249537.024
307,249537.024
1476,0.0
2,4, 1, 4, 0,11, 0.00,60.00,Wednesday
29,5246181.468794915
77,249537.024
307,249537.024
1476,0.0
2,4, 1, 4, 0,12, 0.00,60.00,Wednesday
29,5062356.147925233
77,249537.024
307,249537.024
1476,0.0
2,4, 1, 4, 0,13, 0.00,60.00,Wednesday
29,5082111.280554369
77,249537.024
307,249537.024
1476,0.0
2,4, 1, 4, 0,14, 0.00,60.00,Wednesday
29,5007634.731842738
77,249537.024
307,249537.024
1476,0.0
2,4, 1, 4, 0,15, 0.00,60.00,Wednesday
29,4998114.994432507
77,249537.024
307,249537.024
1476,0.0
2,4, 1, 4, 0,16, 0.00,60.00,Wednesday
29,5058493.356624462
77,249537.024
307,249537.024
1476,0.0
2,4, 1, 4, 0,17, 0.00,60.00,Wednesday
29,5118381.347017709
77,249537.024
307,249537.024
1476,0.0
2,4, 1, 4, 0,18, 0.00,60.00,Wednesday
29,5146706.297244307
77,249537.024
307,249537.024
1476,0.0
2,4, 1, 4, 0,19, 0.00,60.00,Wednesday
29,5456385.3619222045
77,415895.04000000004
307,415895.04000000004
1476,0.0
2,4, 1, 4, 0,20, 0.00,60.00,Wednesday
29,6183922.843086267
77,831790.0800000001
307,831790.0800000001
1476,0.0
2,4, 1, 4, 0,21, 0.00,60.00,Wednesday
29,6193576.868052478
77,831790.0800000001
307,831790.0800000001
1476,0.0
2,4, 1, 4, 0,22, 0.00,60.00,Wednesday
29,6237953.001906302
77,831790.0800000001
307,831790.0800000001
1476,0.0
2,4, 1, 4, 0,23, 0.00,60.00,Wednesday
29,6285826.650566002
77,831790.0800000001
307,831790.0800000001
1476,0.0
2,4, 1, 4, 0,24, 0.00,60.00,Wednesday
29,5580329.463961475
77,415895.04000000004
307,415895.04000000004
1476,0.0
2,5, 1, 5, 0, 1, 0.00,60.00,Thursday
29,5151437.001146315
77,83179.00800000002
307,83179.00800000002
1476,0.0
2,5, 1, 5, 0, 2, 0.00,60.00,Thursday
29,5301074.794878547
77,83179.00800000002
307,83179.00800000002
1476,0.0
2,5, 1, 5, 0, 3, 0.00,60.00,Thursday
29,5395189.836860323
77,83179.00800000002
307,83179.00800000002
1476,0.0
2,5, 1, 5, 0, 4, 0.00,60.00,Thursday
29,5517586.314584544
77,83179.00800000002
307,83179.00800000002
1476,0.0
2,5, 1, 5, 0, 5, 0.00,60.00,Thursday
29,5623591.9709381685
77,83179.00800000002
307,83179.00800000002
1476,0.0
2,5, 1, 5, 0, 6, 0.00,60.00,Thursday
29,5695912.83455317
77,83179.00800000002
307,83179.00800000002
1476,0.0
2,5, 1, 5, 0, 7, 0.00,60.00,Thursday
29,5804995.764815308
77,83179.00800000002
307,83179.00800000002
1476,0.0
2,5, 1, 5, 0, 8, 0.00,60.00,Thursday
29,6085775.308003912
77,249537.024
307,249537.024
1476,0.0
2,5, 1, 5, 0, 9, 0.00,60.00,Thursday
29,5411012.814986115
77,249537.024
307,249537.024
1476,0.0
2,5, 1, 5, 0,10, 0.00,60.00,Thursday
29,4652507.921993161
77,249537.024
307,249537.024
1476,0.0
2,5, 1, 5, 0,11, 0.00,60.00,Thursday
29,4005911.729795969
77,249537.024
307,249537.024
1476,0.0
2,5, 1, 5, 0,12, 0.00,60.00,Thursday
29,3674284.530976092
77,249537.024
307,249537.024
1476,0.0
2,5, 1, 5, 0,13, 0.00,60.00,Thursday
29,3501148.012243525
77,249537.024
307,249537.024
1476,0.0
2,5, 1, 5, 0,14, 0.00,60.00,Thursday
29,3469362.48509783
77,249537.024
307,249537.024
1476,0.0
2,5, 1, 5, 0,15, 0.00,60.00,Thursday
29,3574887.0207592137
77,249537.024
307,249537.024
1476,0.0
2,5, 1, 5, 0,16, 0.00,60.00,Thursday
29,3733847.7463751556
77,249537.024
307,249537.024
1476,0.0
2,5, 1, 5, 0,17, 0.00,60.00,Thursday
29,3907100.5577894347
77,249537.024
307,249537.024
1476,0.0
2,5, 1, 5, 0,18, 0.00,60.00,Thursday
29,4056588.484868128
77,249537.024
307,249537.024
1476,0.0
2,5, 1, 5, 0,19, 0.00,60.00,Thursday
29,4465171.638235029
77,415895.04000000004
307,415895.04000000004
1476,0.0
2,5, 1, 5, 0,20, 0.00,60.00,Thursday
29,5273755.052452384
77,831790.0800000001
307,831790.0800000001
1476,0.0
2,5, 1, 5, 0,21, 0.00,60.00,Thursday
29,5398647.164529817
77,831790.0800000001
307,831790.0800000001
1476,0.0
2,5, 1, 5, 0,22, 0.00,60.00,Thursday
29,5494104.089817361
77,831790.0800000001
307,831790.0800000001
1476,0.0
2,5, 1, 5, 0,23, 0.00,60.00,Thursday
29,5602919.355177144
77,831790.0800000001
307,831790.0800000001
1476,0.0
2,5, 1, 5, 0,24, 0.00,60.00,Thursday
29,4965726.883868108
77,415895.04000000004
307,415895.04000000004
1476,0.0
2,6, 1, 6, 0, 1, 0.00,60.00,Friday
29,4566800.972475702
77,83179.00800000002
307,83179.00800000002
1476,0.0
2,6, 1, 6, 0, 2, 0.00,60.00,Friday
29,4756486.607266229
77,83179.00800000002
307,83179.00800000002
1476,0.0
2,6, 1, 6, 0, 3, 0.00,60.00,Friday
29,4942466.4583333405
77,83179.00800000002
307,83179.00800000002
1476,0.0
2,6, 1, 6, 0, 4, 0.00,60.00,Friday
29,5060516.743528039
77,83179.00800000002
307,83179.00800000002
1476,0.0
2,6, 1, 6, 0, 5, 0.00,60.00,Friday
29,5192025.816444622
77,83179.00800000002
307,83179.00800000002
1476,0.0
2,6, 1, 6, 0, 6, 0.00,60.00,Friday
29,5297687.320238169
77,83179.00800000002
307,83179.00800000002
1476,0.0
2,6, 1, 6, 0, 7, 0.00,60.00,Friday
29,5391443.266587755
77,83179.00800000002
307,83179.00800000002
1476,0.0
2,6, 1, 6, 0, 8, 0.00,60.00,Friday
29,5763789.322123786
77,249537.024
307,249537.024
1476,0.0
2,6, 1, 6, 0, 9, 0.00,60.00,Friday
29,5612648.524039424
77,249537.024
307,249537.024
1476,0.0
2,6, 1, 6, 0,10, 0.00,60.00,Friday
29,5214742.667198904
77,249537.024
307,249537.024
1476,0.0
2,6, 1, 6, 0,11, 0.00,60.00,Friday
29,4729180.255006657
77,249537.024
307,249537.024
1476,0.0
2,6, 1, 6, 0,12, 0.00,60.00,Friday
29,4205495.169785738
77,249537.024
307,249537.024
1476,0.0
2,6, 1, 6, 0,13, 0.00,60.00,Friday
29,3795582.8079589196
77,249537.024
307,249537.024
1476,0.0
2,6, 1, 6, 0,14, 0.00,60.00,Friday
29,3481975.361542681
77,249537.024
307,249537.024
1476,0.0
2,6, 1, 6, 0,15, 0.00,60.00,Friday
29,3384174.951389796
77,249537.024
307,249537.024
1476,0.0
2,6, 1, 6, 0,16, 0.00,60.00,Friday
29,3470356.7507254016
77,249537.024
307,249537.024
1476,0.0
2,6, 1, 6, 0,17, 0.00,60.00,Friday
29,3669621.0310361823
77,249537.024
307,249537.024
1476,0.0
2,6, 1, 6, 0,18, 0.00,60.00,Friday
29,3827498.4237179304
77,249537.024
307,249537.024
1476,0.0
2,6, 1, 6, 0,19, 0.00,60.00,Friday
29,4250980.148119714
77,415895.04000000004
307,415895.04000000004
1476,0.0
2,6, 1, 6, 0,20, 0.00,60.00,Friday
29,5076320.990686491
77,831790.0800000001
307,831790.0800000001
1476,0.0
2,6, 1, 6, 0,21, 0.00,60.00,Friday
29,5161313.204128557
77,831790.0800000001
307,831790.0800000001
1476,0.0
2,6, 1, 6, 0,22, 0.00,60.00,Friday
29,5259303.331881873
77,831790.0800000001
307,831790.0800000001
1476,0.0
2,6, 1, 6, 0,23, 0.00,60.00,Friday
29,5377542.869635085
77,831790.0800000001
307,831790.0800000001
1476,0.0
2,6, 1, 6, 0,24, 0.00,60.00,Friday
29,4737849.510102579
77,415895.04000000004
307,415895.04000000004
1476,0.0
2,7, 1, 7, 0, 1, 0.00,60.00,Saturday
29,4315590.634183342
77,83179.00800000002
307,83179.00800000002
1476,0.0
2,7, 1, 7, 0, 2, 0.00,60.00,Saturday
29,4478277.536425652
77,83179.00800000002
307,83179.00800000002
1476,0.0
2,7, 1, 7, 0, 3, 0.00,60.00,Saturday
29,4646975.193110992
77,83179.00800000002
307,83179.00800000002
1476,0.0
2,7, 1, 7, 0, 4, 0.00,60.00,Saturday
29,4791442.018684719
77,83179.00800000002
307,83179.00800000002
1476,0.0
2,7, 1, 7, 0, 5, 0.00,60.00,Saturday
29,4924102.195323715
77,83179.00800000002
307,83179.00800000002
1476,0.0
2,7, 1, 7, 0, 6, 0.00,60.00,Saturday
29,5046302.905421824
77,83179.00800000002
307,83179.00800000002
1476,0.0
2,7, 1, 7, 0, 7, 0.00,60.00,Saturday
29,5170504.74232108
77,83179.00800000002
307,83179.00800000002
1476,0.0
2,7, 1, 7, 0, 8, 0.00,60.00,Saturday
29,5522216.189195545
77,249537.024
307,249537.024
1476,0.0
2,7, 1, 7, 0, 9, 0.00,60.00,Saturday
29,5498038.3507362455
77,249537.024
307,249537.024
1476,0.0
2,7, 1, 7, 0,10, 0.00,60.00,Saturday
29,5443053.372574079
77,249537.024
307,249537.024
1476,0.0
2,7, 1, 7, 0,11, 0.00,60.00,Saturday
29,5223408.2561196955
77,249537.024
307,249537.024
1476,0.0
2,7, 1, 7, 0,12, 0.00,60.00,Saturday
29,4917813.061416612
77,249537.024
307,249537.024
1476,0.0
2,7, 1, 7, 0,13, 0.00,60.00,Saturday
29,4251080.349484364
77,249537.024
307,249537.024
1476,0.0
2,7, 1, 7, 0,14, 0.00,60.00,Saturday
29,4020704.806622564
77,249537.024
307,249537.024
1476,0.0
2,7, 1, 7, 0,15, 0.00,60.00,Saturday
29,3951660.0528261736
77,249537.024
307,249537.024
1476,0.0
2,7, 1, 7, 0,16, 0.00,60.00,Saturday
29,4196621.7622460555
77,249537.024
307,249537.024
1476,0.0
2,7, 1, 7, 0,17, 0.00,60.00,Saturday
29,4381947.873926632
77,249537.024
307,249537.024
1476,0.0
2,7, 1, 7, 0,18, 0.00,60.00,Saturday
29,4515936.604258936
77,249537.024
307,249537.024
1476,0.0
2,7, 1, 7, 0,19, 0.00,60.00,Saturday
29,4909531.296380082
77,415895.04000000004
307,415895.04000000004
1476,0.0
2,7, 1, 7, 0,20, 0.00,60.00,Saturday
29,5739123.279704597
77,831790.0800000001
307,831790.0800000001
1476,0.0
2,7, 1, 7, 0,21, 0.00,60.00,Saturday
29,5844284.177981164
77,831790.0800000001
307,831790.0800000001
1476,0.0
2,7, 1, 7, 0,22, 0.00,60.00,Saturday
29,5961857.419579476
77,831790.0800000001
307,831790.0800000001
1476,0.0
2,7, 1, 7, 0,23, 0.00,60.00,Saturday
29,6073665.807212908
77,831790.0800000001
307,831790.0800000001
1476,0.0
2,7, 1, 7, 0,24, 0.00,60.00,Saturday
29,5501878.915660452
77,415895.04000000004
307,415895.04000000004
1476,0.0
2,8, 1, 8, 0, 1, 0.00,60.00,Sunday
29,5118138.384543794
77,83179.00800000002
307,83179.00800000002
1476,0.0
2,8, 1, 8, 0, 2, 0.00,60.00,Sunday
29,5318851.81250602
77,83179.00800000002
307,83179.00800000002
1476,0.0
2,8, 1, 8, 0, 3, 0.00,60.00,Sunday
29,5453227.810954642
77,83179.00800000002
307,83179.00800000002
1476,0.0
2,8, 1, 8, 0, 4, 0.00,60.00,Sunday
29,5543136.4284428265
77,83179.00800000002
307,83179.00800000002
1476,0.0
2,8, 1, 8, 0, 5, 0.00,60.00,Sunday
29,5613259.518283557
77,83179.00800000002
307,83179.00800000002
1476,0.0
2,8, 1, 8, 0, 6, 0.00,60.00,Sunday
29,5692982.243019009
77,83179.00800000002
307,83179.00800000002
1476,0.0
2,8, 1, 8, 0, 7, 0.00,60.00,Sunday
29,5757217.489968894
77,83179.00800000002
307,83179.00800000002
1476,0.0
2,8, 1, 8, 0, 8, 0.00,60.00,Sunday
29,6035841.489957448
77,249537.024
307,249537.024
1476,0.0
2,8, 1, 8, 0, 9, 0.00,60.00,Sunday
29,5955156.11966327
77,249537.024
307,249537.024
1476,0.0
2,8, 1, 8, 0,10, 0.00,60.00,Sunday
29,5872828.368382357
77,249537.024
307,249537.024
1476,0.0
2,8, 1, 8, 0,11, 0.00,60.00,Sunday
29,5834318.055406993
77,249537.024
307,249537.024
1476,0.0
2,8, 1, 8, 0,12, 0.00,60.00,Sunday
29,5797538.1593026845
77,249537.024
307,249537.024
1476,0.0
2,8, 1, 8, 0,13, 0.00,60.00,Sunday
29,5588121.899991762
77,249537.024
307,249537.024
1476,0.0
2,8, 1, 8, 0,14, 0.00,60.00,Sunday
29,4698545.515300646
77,249537.024
307,249537.024
1476,0.0
2,8, 1, 8, 0,15, 0.00,60.00,Sunday
29,4424254.33904781
77,249537.024
307,249537.024
1476,0.0
2,8, 1, 8, 0,16, 0.00,60.00,Sunday
29,4549798.118202126
77,249537.024
307,249537.024
1476,0.0
2,8, 1, 8, 0,17, 0.00,60.00,Sunday
29,4831073.544148317
77,249537.024
307,249537.024
1476,0.0
2,8, 1, 8, 0,18, 0.00,60.00,Sunday
29,4965091.827588109
77,249537.024
307,249537.024
1476,0.0
2,8, 1, 8, 0,19, 0.00,60.00,Sunday
29,5346882.98902585
77,415895.04000000004
307,415895.04000000004
1476,0.0
2,8, 1, 8, 0,20, 0.00,60.00,Sunday
29,6121355.214268669
77,831790.0800000001
307,831790.0800000001
1476,0.0
2,8, 1, 8, 0,21, 0.00,60.00,Sunday
29,6170037.536475042
77,831790.0800000001
307,831790.0800000001
1476,0.0
2,8, 1, 8, 0,22, 0.00,60.00,Sunday
29,6227050.160367103
77,831790.0800000001
307,831790.0800000001
1476,0.0
2,8, 1, 8, 0,23, 0.00,60.00,Sunday
29,6287656.784626295
77,831790.0800000001
307,831790.0800000001
1476,0.0
2,8, 1, 8, 0,24, 0.00,60.00,Sunday
29,5681657.6414484875
77,415895.04000000004
307,415895.04000000004
1476,0.0
2,9, 1, 9, 0, 1, 0.00,60.00,Monday
29,5215718.720178211
77,83179.00800000002
307,83179.00800000002
1476,0.0
2,9, 1, 9, 0, 2, 0.00,60.00,Monday
29,5303401.069319995
77,83179.00800000002
307,83179.00800000002
1476,0.0
2,9, 1, 9, 0, 3, 0.00,60.00,Monday
29,5391920.29307453
77,83179.00800000002
307,83179.00800000002
1476,0.0
2,9, 1, 9, 0, 4, 0.00,60.00,Monday
29,5442851.759969879
77,83179.00800000002
307,83179.00800000002
1476,0.0
2,9, 1, 9, 0, 5, 0.00,60.00,Monday
29,5503850.162743771
77,83179.00800000002
307,83179.00800000002
1476,0.0
2,9, 1, 9, 0, 6, 0.00,60.00,Monday
29,5534933.305953231
77,83179.00800000002
307,83179.00800000002
1476,0.0
2,9, 1, 9, 0, 7, 0.00,60.00,Monday
29,5596828.003063794
77,83179.00800000002
307,83179.00800000002
1476,0.0
2,9, 1, 9, 0, 8, 0.00,60.00,Monday
29,5946306.148464566
77,249537.024
307,249537.024
1476,0.0
2,9, 1, 9, 0, 9, 0.00,60.00,Monday
29,5852874.991247963
77,249537.024
307,249537.024
1476,0.0
2,9, 1, 9, 0,10, 0.00,60.00,Monday
29,5867531.083757844
77,249537.024
307,249537.024
1476,0.0
2,9, 1, 9, 0,11, 0.00,60.00,Monday
29,5768544.964881219
77,249537.024
307,249537.024
1476,0.0
2,9, 1, 9, 0,12, 0.00,60.00,Monday
29,5657508.367560988
77,249537.024
307,249537.024
1476,0.0
2,9, 1, 9, 0,13, 0.00,60.00,Monday
29,5569180.57527168
77,249537.024
307,249537.024
1476,0.0
2,9, 1, 9, 0,14, 0.00,60.00,Monday
29,5514021.797314607
77,249537.024
307,249537.024
1476,0.0
2,9, 1, 9, 0,15, 0.00,60.00,Monday
29,5500537.317547811
77,249537.024
307,249537.024
1476,0.0
2,9, 1, 9, 0,16, 0.00,60.00,Monday
29,5486591.995528019
77,249537.024
307,249537.024
1476,0.0
2,9, 1, 9, 0,17, 0.00,60.00,Monday
29,5503067.215170842
77,249537.024
307,249537.024
1476,0.0
2,9, 1, 9, 0,18, 0.00,60.00,Monday
29,5530915.1191228395
77,249537.024
307,249537.024
1476,0.0
2,9, 1, 9, 0,19, 0.00,60.00,Monday
29,5814633.985518202
77,415895.04000000004
307,415895.04000000004
1476,0.0
2,9, 1, 9, 0,20, 0.00,60.00,Monday
29,6509890.632937131
77,831790.0800000001
307,831790.0800000001
1476,0.0
2,9, 1, 9, 0,21, 0.00,60.00,Monday
29,6494184.022418706
77,831790.0800000001
307,831790.0800000001
1476,0.0
2,9, 1, 9, 0,22, 0.00,60.00,Monday
29,6518547.278033068
77,831790.0800000001
307,831790.0800000001
1476,0.0
2,9, 1, 9, 0,23, 0.00,60.00,Monday
29,6537728.508069522
77,831790.0800000001
307,831790.0800000001
1476,0.0
2,9, 1, 9, 0,24, 0.00,60.00,Monday
29,5822624.263323145
77,415895.04000000004
307,415895.04000000004
1476,0.0
2,10, 1,10, 0, 1, 0.00,60.00,Tuesday
29,5410867.707975107
77,83179.00800000002
307,83179.00800000002
1476,0.0
2,10, 1,10, 0, 2, 0.00,60.00,Tuesday
29,5633995.337892338
77,83179.00800000002
307,83179.00800000002
1476,0.0
2,10, 1,10, 0, 3, 0.00,60.00,Tuesday
29,5894379.372096172
77,83179.00800000002
307,83179.00800000002
1476,0.0
2,10, 1,10, 0, 4, 0.00,60.00,Tuesday
29,6095260.979087869
77,83179.00800000002
307,83179.00800000002
1476,0.0
2,10, 1,10, 0, 5, 0.00,60.00,Tuesday
29,6319425.893711571
77,83179.00800000002
307,83179.00800000002
1476,0.0
2,10, 1,10, 0, 6, 0.00,60.00,Tuesday
29,6515339.170455651
77,83179.00800000002
307,83179.00800000002
1476,0.0
2,10, 1,10, 0, 7, 0.00,60.00,Tuesday
29,6716348.032457114
77,83179.00800000002
307,83179.00800000002
1476,0.0
2,10, 1,10, 0, 8, 0.00,60.00,Tuesday
29,6864954.097478209
77,249537.024
307,249537.024
1476,0.0
2,10, 1,10, 0, 9, 0.00,60.00,Tuesday
29,5576435.68722555
77,249537.024
307,249537.024
1476,0.0
2,10, 1,10, 0,10, 0.00,60.00,Tuesday
29,4658967.631844026
77,249537.024
307,249537.024
1476,0.0
2,10, 1,10, 0,11, 0.00,60.00,Tuesday
29,4116538.1669300655
77,249537.024
307,249537.024
1476,0.0
2,10, 1,10, 0,12, 0.00,60.00,Tuesday
29,3682592.9044570676
77,249537.024
307,249537.024
1476,0.0
2,10, 1,10, 0,13, 0.00,60.00,Tuesday
29,3457776.709486093
77,249537.024
307,249537.024
1476,0.0
2,10, 1,10, 0,14, 0.00,60.00,Tuesday
29,3471403.244517637
77,249537.024
307,249537.024
1476,0.0
2,10, 1,10, 0,15, 0.00,60.00,Tuesday
29,3549048.639371847
77,249537.024
307,249537.024
1476,0.0
2,10, 1,10, 0,16, 0.00,60.00,Tuesday
29,3597765.2873965446
77,249537.024
307,249537.024
1476,0.0
2,10, 1,10, 0,17, 0.00,60.00,Tuesday
29,3789255.7631074926
77,249537.024
307,249537.024
1476,0.0
2,10, 1,10, 0,18, 0.00,60.00,Tuesday
29,4150728.816652115
77,249537.024
307,249537.024
1476,0.0
2,10, 1,10, 0,19, 0.00,60.00,Tuesday
29,4725098.7214661
77,415895.04000000004
307,415895.04000000004
1476,0.0
2,10, 1,10, 0,20, 0.00,60.00,Tuesday
29,5699885.963111462
77,831790.0800000001
307,831790.0800000001
1476,0.0
2,10, 1,10, 0,21, 0.00,60.00,Tuesday
29,5908289.85517057
77,831790.0800000001
307,831790.0800000001
1476,0.0
2,10, 1,10, 0,22, 0.00,60.00,Tuesday
29,6129645.667298159
77,831790.0800000001
307,831790.0800000001
1476,0.0
2,10, 1,10, 0,23, 0.00,60.00,Tuesday
29,6383585.490500022
77,831790.0800000001
307,831790.0800000001
1476,0.0
2,10, 1,10, 0,24, 0.00,60.00,Tuesday
29,5909318.260131001
77,415895.04000000004
307,415895.04000000004
1476,0.0
2,11, 1,11, 0, 1, 0.00,60.00,Wednesday
29,5605451.360785799
77,83179.00800000002
307,83179.00800000002
1476,0.0
2,11, 1,11, 0, 2, 0.00,60.00,Wednesday
29,5822179.094726587
77,83179.00800000002
307,83179.00800000002
1476,0.0
2,11, 1,11, 0, 3, 0.00,60.00,Wednesday
29,6009790.521208058
77,83179.00800000002
307,83179.00800000002
1476,0.0
2,11, 1,11, 0, 4, 0.00,60.00,Wednesday
29,6146035.011545482
77,83179.00800000002
307,83179.00800000002
1476,0.0
2,11, 1,11, 0, 5, 0.00,60.00,Wednesday
29,6272259.4565111045
77,83179.00800000002
307,83179.00800000002
1476,0.0
2,11, 1,11, 0, 6, 0.00,60.00,Wednesday
29,6395636.66488385
77,83179.00800000002
307,83179.00800000002
1476,0.0
2,11, 1,11, 0, 7, 0.00,60.00,Wednesday
29,6450083.308127986
77,83179.00800000002
307,83179.00800000002
1476,0.0
2,11, 1,11, 0, 8, 0.00,60.00,Wednesday
29,6719818.322330369
77,249537.024
307,249537.024
1476,0.0
2,11, 1,11, 0, 9, 0.00,60.00,Wednesday
29,6351949.697455414
77,249537.024
307,249537.024
1476,0.0
2,11, 1,11, 0,10, 0.00,60.00,Wednesday
29,5798357.634219358
77,249537.024
307,249537.024
1476,0.0
2,11, 1,11, 0,11, 0.00,60.00,Wednesday
29,5053003.86505166
77,249537.024
307,249537.024
1476,0.0
2,11, 1,11, 0,12, 0.00,60.00,Wednesday
29,4811635.929612674
77,249537.024
307,249537.024
1476,0.0
2,11, 1,11, 0,13, 0.00,60.00,Wednesday
29,4790032.082179243
77,249537.024
307,249537.024
1476,0.0
2,11, 1,11, 0,14, 0.00,60.00,Wednesday
29,4998224.071628997
77,249537.024
307,249537.024
1476,0.0
2,11, 1,11, 0,15, 0.00,60.00,Wednesday
29,5210267.274688376
77,249537.024
307,249537.024
1476,0.0
2,11, 1,11, 0,16, 0.00,60.00,Wednesday
29,5408945.54317072
77,249537.024
307,249537.024
1476,0.0
2,11, 1,11, 0,17, 0.00,60.00,Wednesday
29,5588018.075695391
77,249537.024
307,249537.024
1476,0.0
2,11, 1,11, 0,18, 0.00,60.00,Wednesday
29,5780542.482466032
77,249537.024
307,249537.024
1476,0.0
2,11, 1,11, 0,19, 0.00,60.00,Wednesday
29,6202326.7124207
77,415895.04000000004
307,415895.04000000004
1476,0.0
2,11, 1,11, 0,20, 0.00,60.00,Wednesday
29,6962925.89222657
77,831790.0800000001
307,831790.0800000001
1476,0.0
2,11, 1,11, 0,21, 0.00,60.00,Wednesday
29,7044863.725089673
77,831790.0800000001
307,831790.0800000001
1476,0.0
2,11, 1,11, 0,22, 0.00,60.00,Wednesday
29,7149774.653803993
77,831790.0800000001
307,831790.0800000001
1476,0.0
2,11, 1,11, 0,23, 0.00,60.00,Wednesday
29,7244772.00770862
77,831790.0800000001
307,831790.0800000001
1476,0.0
2,11, 1,11, 0,24, 0.00,60.00,Wednesday
29,6620257.206242025
77,415895.04000000004
307,415895.04000000004
1476,0.0
2,12, 1,12, 0, 1, 0.00,60.00,Thursday
29,6352296.802806828
77,83179.00800000002
307,83179.00800000002
1476,0.0
2,12, 1,12, 0, 2, 0.00,60.00,Thursday
29,6583622.320473207
77,83179.00800000002
307,83179.00800000002
1476,0.0
2,12, 1,12, 0, 3, 0.00,60.00,Thursday
29,6715705.839146612
77,83179.00800000002
307,83179.00800000002
1476,0.0
2,12, 1,12, 0, 4, 0.00,60.00,Thursday
29,6814992.655762298
77,83179.00800000002
307,83179.00800000002
1476,0.0
2,12, 1,12, 0, 5, 0.00,60.00,Thursday
29,6914737.928484467
77,83179.00800000002
307,83179.00800000002
1476,0.0
2,12, 1,12, 0, 6, 0.00,60.00,Thursday
29,7015058.006095583
77,83179.00800000002
307,83179.00800000002
1476,0.0
2,12, 1,12, 0, 7, 0.00,60.00,Thursday
29,7117452.899187786
77,83179.00800000002
307,83179.00800000002
1476,0.0
2,12, 1,12, 0, 8, 0.00,60.00,Thursday
29,7312159.635818757
77,249537.024
307,249537.024
1476,0.0
2,12, 1,12, 0, 9, 0.00,60.00,Thursday
29,6603224.070592072
77,249537.024
307,249537.024
1476,0.0
2,12, 1,12, 0,10, 0.00,60.00,Thursday
29,6045733.759020813
77,249537.024
307,249537.024
1476,0.0
2,12, 1,12, 0,11, 0.00,60.00,Thursday
29,5644354.849582785
77,249537.024
307,249537.024
1476,0.0
2,12, 1,12, 0,12, 0.00,60.00,Thursday
29,5033596.879100731
77,249537.024
307,249537.024
1476,0.0
2,12, 1,12, 0,13, 0.00,60.00,Thursday
29,4880897.534314721
77,249537.024
307,249537.024
1476,0.0
2,12, 1,12, 0,14, 0.00,60.00,Thursday
29,4473356.490989362
77,249537.024
307,249537.024
1476,0.0
2,12, 1,12, 0,15, 0.00,60.00,Thursday
29,4608968.610706797
77,249537.024
307,249537.024
1476,0.0
2,12, 1,12, 0,16, 0.00,60.00,Thursday
29,4807127.973666972
77,249537.024
307,249537.024
1476,0.0
2,12, 1,12, 0,17, 0.00,60.00,Thursday
29,4986543.67444112
77,249537.024
307,249537.024
1476,0.0
2,12, 1,12, 0,18, 0.00,60.00,Thursday
29,5156276.387256432
77,249537.024
307,249537.024
1476,0.0
2,12, 1,12, 0,19, 0.00,60.00,Thursday
29,5627231.793403497
77,415895.04000000004